[Molden Format]
[Title]
generated by GANSU
[Atoms] (Angs)
C 1 6 0 0 0.198
O 2 8 0 0 1.417
C 3 6 0 1.304 -0.627
C 4 6 0 -1.304 -0.627
H 5 1 -0.002 2.166 0.032
H 6 1 0.002 -2.166 0.032
H 7 1 0.881 1.344 -1.262
H 8 1 -0.879 1.342 -1.265
H 9 1 -0.881 -1.344 -1.262
H 10 1 0.879 -1.342 -1.265
[GTO]
1 0
 s 3 1.00
    13.0451 0.535328
    3.53051 0.444635
    71.6168 0.154329
 s 3 1.00
    2.94125 -0.0999672
    0.683483 0.399513
    0.22229 0.700115
 p 3 1.00
    2.94125 0.155916
    0.683483 0.607684
    0.22229 0.391957

2 0
 s 3 1.00
    23.8089 0.535328
    6.44361 0.444635
    130.709 0.154329
 s 3 1.00
    5.03315 -0.0999672
    1.1696 0.399513
    0.380389 0.700115
 p 3 1.00
    5.03315 0.155916
    1.1696 0.607684
    0.380389 0.391957

3 0
 s 3 1.00
    71.6168 0.154329
    13.0451 0.535328
    3.53051 0.444635
 s 3 1.00
    0.22229 0.700115
    0.683483 0.399513
    2.94125 -0.0999672
 p 3 1.00
    0.22229 0.391957
    0.683483 0.607684
    2.94125 0.155916

4 0
 s 3 1.00
    13.0451 0.535328
    71.6168 0.154329
    3.53051 0.444635
 s 3 1.00
    0.22229 0.700115
    0.683483 0.399513
    2.94125 -0.0999672
 p 3 1.00
    0.22229 0.391957
    0.683483 0.607684
    2.94125 0.155916

5 0
 s 3 1.00
    0.168855 0.444635
    0.623914 0.535328
    3.42525 0.154329

6 0
 s 3 1.00
    0.168855 0.444635
    0.623914 0.535328
    3.42525 0.154329

7 0
 s 3 1.00
    0.168855 0.444635
    0.623914 0.535328
    3.42525 0.154329

8 0
 s 3 1.00
    3.42525 0.154329
    0.623914 0.535328
    0.168855 0.444635

9 0
 s 3 1.00
    3.42525 0.154329
    0.623914 0.535328
    0.168855 0.444635

10 0
 s 3 1.00
    3.42525 0.154329
    0.623914 0.535328
    0.168855 0.444635

[MO]
Sym= A
Ene= -20.272
Spin= Alpha
Occup= 2
 1 0.00054382090981040863
 2 -0.0072630421844943407
 3 -1.6856460000712327e-16
 4 4.1066009653926768e-17
 5 -0.005468360451639195
 6 0.99426335025217294
 7 0.026057641080405803
 8 4.3357429769526051e-16
 9 1.4928813688935699e-16
 10 -0.0042197321242692419
 11 -2.5919264560124496e-05
 12 0.00028682808972871598
 13 -2.1868986750563873e-07
 14 0.0001126802569650109
 15 0.00040861211883161803
 16 -2.5919264559990835e-05
 17 0.00028682808972828371
 18 2.1868986805536417e-07
 19 -0.00011268025696493047
 20 0.00040861211883146641
 21 -0.00020906735841753852
 22 -0.00020906735841698954
 23 2.913401800221871e-05
 24 2.8997954232851905e-05
 25 2.913401800230799e-05
 26 2.8997954233246961e-05
Sym= A
Ene= -11.12067377795864
Spin= Alpha
Occup= 2
 1 0.99261478989830998
 2 0.032330222513255652
 3 8.6762760472624305e-17
 4 6.8362304366074465e-17
 5 0.00060757514326858879
 6 0.00014895411616012123
 7 -0.0058367395655505973
 8 -1.3678433432123172e-16
 9 6.7975279607084379e-17
 10 0.0012686078122214944
 11 -0.0017717094588401768
 12 -0.0052273900718434151
 13 2.2326675307075485e-07
 14 0.0027903953394401802
 15 -0.0020248070305909196
 16 -0.0017717094588392142
 17 -0.0052273900718433014
 18 -2.2326675331416813e-07
 19 -0.0027903953394401858
 20 -0.0020248070305908679
 21 -4.0931266849245857e-05
 22 -4.0931266849389047e-05
 23 -0.00012508821099590698
 24 -0.00012458880879405036
 25 -0.00012508821099597515
 26 -0.00012458880879413864
Sym= A
Ene= -11.049154944813964
Spin= Alpha
Occup= 2
 1 3.3193587770296496e-13
 2 -6.6869073218784719e-13
 3 -1.0485937072328332e-07
 4 -0.0044099383580989493
 5 2.2118011979134753e-13
 6 -2.6627450464511339e-15
 7 3.0590293271726322e-14
 8 -5.2852712748104857e-08
 9 0.00021983528372638691
 10 -1.1728463015802769e-14
 11 0.70138125556683795
 12 0.026734264261318568
 13 7.6341818008125254e-07
 14 9.6773894746680464e-05
 15 -0.00018503202169307872
 16 -0.70138125544788321
 17 -0.026734264256767053
 18 7.6341818008922503e-07
 19 9.6773894719296566e-05
 20 0.00018503202167499157
 21 -0.0048875642561892483
 22 0.0048875642553366568
 23 -0.0049835194043546084
 24 -0.0049819959555084852
 25 0.0049835194035119214
 26 0.0049819959546657504
Sym= A
Ene= -11.049094859414703
Spin= Alpha
Occup= 2
 1 0.0039067104120122133
 2 -0.0078846600016558299
 3 2.7554337042670553e-16
 4 3.7468340588493438e-13
 5 0.0026057974853014509
 6 -3.1707070439019207e-05
 7 0.0003614350350659552
 8 -6.895241949165358e-16
 9 -1.8713542679146827e-14
 10 -0.00013854043801755757
 11 0.70141489311876071
 12 0.026840978035413219
 13 2.3669224959079483e-07
 14 0.00016094601467473484
 15 -0.00011091055613737897
 16 0.70141489323770889
 17 0.026840978039949014
 18 -2.3669225051078476e-07
 19 -0.00016094601469142223
 20 -0.00011091055616864116
 21 -0.005025534376848044
 22 -0.0050255343776779817
 23 -0.0049724440129834896
 24 -0.0049729276897349829
 25 -0.0049724440138290494
 26 -0.0049729276905811541
Sym= A
Ene= -1.3207899007721593
Spin= Alpha
Occup= 2
 1 0.12673892745580073
 2 -0.29139177749405054
 3 -6.2216355182976266e-16
 4 -6.6750078534419535e-16
 5 -0.13278223599752401
 6 0.21537355831264918
 7 -0.7520587095777187
 8 -5.1885190664355639e-16
 9 -2.2112887434857662e-16
 10 0.12552924450676944
 11 0.019930596908763271
 12 -0.050339080951853063
 13 -6.0699792367988439e-07
 14 0.018209297391751377
 15 -0.013026575290850193
 16 0.019930596908763275
 17 -0.050339080951853951
 18 6.0699792328994155e-07
 19 -0.018209297391750451
 20 -0.013026575290850198
 21 -0.0085243971309110194
 22 -0.0085243971309095484
 23 -0.005415984506937783
 24 -0.0054125745336208149
 25 -0.0054159845069370787
 26 -0.0054125745336206137
Sym= A
Ene= -0.98010050662811488
Spin= Alpha
Occup= 2
 1 -0.091840952385006419
 2 0.26108891122182359
 3 -1.2681723979043466e-15
 4 7.4262615689823363e-16
 5 -0.1495001768518352
 6 0.069373765591835654
 7 -0.27157182345297004
 8 1.2963769463344071e-15
 9 5.3648480757364294e-16
 10 -0.014921023911093609
 11 -0.14192787651100125
 12 0.39629745183914644
 13 9.6330292549025445e-06
 14 -0.036139877592395106
 15 0.0040006994939013147
 16 -0.14192787651099711
 17 0.3962974518391319
 18 -9.6330292534954381e-06
 19 0.036139877592394946
 20 0.0040006994939009678
 21 0.089804197715329673
 22 0.089804197715329853
 23 0.10659871279845864
 24 0.10661999647286775
 25 0.10659871279845641
 26 0.10661999647286791
Sym= A
Ene= -0.91620932036614078
Spin= Alpha
Occup= 2
 1 -2.1211940625605472e-14
 2 6.8587506311374515e-14
 3 -2.0607281360392227e-06
 4 -0.15618935602829662
 5 -9.1370437353209741e-15
 6 1.2163566501409405e-14
 7 -5.62137204956509e-14
 8 -1.9558354523443763e-07
 9 -0.045944381460560943
 10 -2.5752387109418901e-14
 11 0.15737184539758228
 12 -0.45132897653923554
 13 -1.7037114124586923e-05
 14 -0.015952858070335595
 15 -0.0015266938437971565
 16 -0.15737184539757321
 17 0.45132897653920939
 18 -1.7037114123190058e-05
 19 -0.015952858070276851
 20 0.0015266938438327196
 21 -0.13777807669851039
 22 0.13777807669847048
 23 -0.1295146207954137
 24 -0.12945807565338263
 25 0.12951462079538592
 26 0.12945807565335496
Sym= A
Ene= -0.68158601247031414
Spin= Alpha
Occup= 2
 1 -0.16151925603572889
 2 0.54456617168103316
 3 -2.2699625043493166e-15
 4 2.0102220081334941e-14
 5 -0.084115980180742761
 6 0.088190868745635531
 7 -0.40771427078138001
 8 4.3287402110921954e-15
 9 6.8311875936632264e-15
 10 -0.19692385525362288
 11 0.050510245784780243
 12 -0.15738183538973519
 13 -2.991885019532683e-05
 14 -0.20724345660975968
 15 0.10610701302609502
 16 0.050510245784823611
 17 -0.15738183538986705
 18 2.9918850195551229e-05
 19 0.20724345660975821
 20 0.106107013026085
 21 -0.14560868883495887
 22 -0.14560868883498368
 23 -0.11921330125673685
 24 -0.11911150574469792
 25 -0.11921330125676724
 26 -0.11911150574472623
Sym= A
Ene= -0.58587153758578203
Spin= Alpha
Occup= 2
 1 -1.4343881551093424e-15
 2 5.0073245336862005e-15
 3 0.0004867356627500293
 4 -0.34639987878395478
 5 2.4941894202159236e-15
 6 1.1362970425020904e-15
 7 -5.9195056297292028e-15
 8 0.00031113209773450554
 9 -0.31113901588036585
 10 -5.1320437236086905e-15
 11 -0.013934440877414408
 12 0.049064747812522645
 13 0.00067499724832924572
 14 0.074337070559424248
 15 -0.26251391121686313
 16 0.013934440877415395
 17 -0.049064747812526371
 18 0.00067499724832684952
 19 0.074337070559426136
 20 0.2625139112168598
 21 -0.082608901433821866
 22 0.082608901433817522
 23 0.1691593472974818
 24 0.16860369220331423
 25 -0.16915934729747809
 26 -0.16860369220331581
Sym= A
Ene= -0.5795771396921191
Spin= Alpha
Occup= 2
 1 1.495804137296026e-16
 2 1.3975625889217737e-16
 3 0.23184081964334538
 4 0.00073180031198719932
 5 -1.0224851278222438e-15
 6 -4.8806634034479872e-18
 7 2.0859447184777354e-16
 8 0.14372107074729953
 9 0.00064943353931795774
 10 -5.6031353751690157e-17
 11 3.9262526092407795e-05
 12 -0.00014073375838232562
 13 0.30927103875303663
 14 -0.00014081270626660337
 15 0.00058795138041493411
 16 -3.92625260916254e-05
 17 0.00014073375837929503
 18 0.30927103875302236
 19 -0.00014081270626924147
 20 -0.0005879513804143017
 21 -0.00036024958288132517
 22 0.00036024958288428407
 23 0.25312166625296167
 24 -0.25334800517086287
 25 -0.25312166625295052
 26 0.2533480051708501
Sym= A
Ene= -0.57151772842240001
Spin= Alpha
Occup= 2
 1 0.018528363171738525
 2 -0.057331399645563101
 3 -7.2800898663404703e-16
 4 2.9068134380197652e-15
 5 -0.20399314593981416
 6 -0.064895286885061812
 7 0.33152566758384788
 8 -1.7927321596046287e-15
 9 1.8366899708896697e-15
 10 0.23663124120894599
 11 0.0079553137302766936
 12 -0.028254730952484007
 13 -3.4824907989755531e-05
 14 -0.21052619040837586
 15 -0.20998138784059783
 16 0.007955313730276194
 17 -0.028254730952481807
 18 3.4824907991678052e-05
 19 0.21052619040836734
 20 -0.20998138784059389
 21 -0.29462441622643226
 22 -0.29462441622642366
 23 0.10714553598465833
 24 0.10818347508995439
 25 0.10714553598465204
 26 0.1081834750899537
Sym= A
Ene= -0.52565782745515277
Spin= Alpha
Occup= 2
 1 -1.5149102890187762e-05
 2 5.6588392596508181e-05
 3 -5.6757496414799252e-15
 4 1.7791324361935617e-15
 5 6.622596281176472e-05
 6 1.2946260485561617e-05
 7 -7.4056092641849037e-05
 8 -4.1206640310133386e-15
 9 2.1879787674752396e-15
 10 -9.9776339219080412e-05
 11 1.2428102510433168e-05
 12 -5.3622602063610131e-05
 13 0.35251428273087476
 14 -2.7837274936663217e-05
 15 -8.9008873453997293e-05
 16 1.2428102509540036e-05
 17 -5.3622602061209937e-05
 18 -0.3525142827308862
 19 2.7837274932548886e-05
 20 -8.9008873455464395e-05
 21 -0.00080748498641331433
 22 -0.00080748498641058767
 23 0.30341261089841903
 24 -0.30260296663911551
 25 0.30341261089842803
 26 -0.30260296663912573
Sym= A
Ene= -0.49589683357145953
Spin= Alpha
Occup= 2
 1 -7.3892964538351797e-16
 2 3.1109677960899882e-15
 3 -6.4609311849833694e-05
 4 -0.22563670277207507
 5 -5.6674891734386221e-15
 6 -8.0228073794955917e-16
 7 4.4731301825476548e-15
 8 -5.382867275816357e-05
 9 -0.21011049295423698
 10 4.809636410251468e-15
 11 0.0051921020095907289
 12 -0.018957431570204873
 13 -3.572626171830291e-05
 14 0.28715005093899099
 15 0.17189078277671277
 16 -0.005192102009590421
 17 0.018957431570203794
 18 -3.5726261722425094e-05
 19 0.28715005093899731
 20 -0.17189078277671518
 21 0.3595606284209486
 22 -0.35956062842095587
 23 -0.10803946865362361
 24 -0.10908651387665128
 25 0.10803946865362565
 26 0.10908651387664875
Sym= A
Ene= -0.48431322288624001
Spin= Alpha
Occup= 2
 1 0.0026613182759127945
 2 0.0078828003665011425
 3 -8.8941299646642344e-16
 4 -6.7625706281918407e-16
 5 -0.34054700864729698
 6 -0.059932239056420818
 7 0.33366767401552944
 8 -2.3025169811270451e-15
 9 -4.9623872982326931e-15
 10 0.41576341931031763
 11 -0.0087763582540919122
 12 0.033753180268023826
 13 0.00010549730481643073
 14 -0.040446382124307782
 15 0.24523774815722438
 16 -0.0087763582540910431
 17 0.033753180268020717
 18 -0.00010549730481515235
 19 0.040446382124302099
 20 0.24523774815722951
 21 0.15376603070623485
 22 0.15376603070624012
 23 -0.15450142655526333
 24 -0.1554079148974363
 25 -0.15450142655526675
 26 -0.15540791489744071
Sym= A
Ene= -0.3971913060441406
Spin= Alpha
Occup= 2
 1 5.2220886185449225e-16
 2 -1.5509204746646796e-15
 3 0.45248511365008914
 4 -1.7914448311713692e-05
 5 -1.7538238532026401e-15
 6 -4.643893195745584e-16
 7 2.4841010455754177e-15
 8 0.50000157319542438
 9 -4.9923512283440064e-05
 10 2.9704555064854659e-15
 11 -4.8331268916370405e-06
 12 2.2370265323339997e-05
 13 -0.13232525359107045
 14 3.5526345332313342e-05
 15 3.011398434160339e-05
 16 4.8331268911303929e-06
 17 -2.2370265320920884e-05
 18 -0.132325253591072
 19 3.5526345332677905e-05
 20 -3.0113984342659379e-05
 21 0.00037903964493734627
 22 -0.00037903964493822664
 23 -0.16141805155726774
 24 0.16106381394346339
 25 0.16141805155726874
 26 -0.16106381394346567
Sym= A
Ene= -0.32170842588776977
Spin= Alpha
Occup= 2
 1 1.5660338622243704e-15
 2 -6.6029202064151884e-15
 3 -3.6025698233283164e-05
 4 0.17204548701978425
 5 4.2356290101454825e-15
 6 -1.7316530496119782e-16
 7 4.5707071941687788e-16
 8 -1.427950530750103e-06
 9 -0.6194782686048711
 10 -1.6702061268543514e-15
 11 -0.036579157273491661
 12 0.16120104186134457
 13 -2.2417777587473495e-05
 14 -0.24352854905539664
 15 0.16135319684595742
 16 0.036579157273490759
 17 -0.16120104186134016
 18 -2.241777758776234e-05
 19 -0.24352854905539753
 20 -0.16135319684595889
 21 -0.073585096736207264
 22 0.073585096736206723
 23 -0.066222244018048923
 24 -0.066243787230398782
 25 0.066222244018051282
 26 0.066243787230401974
Sym= A
Ene= 0.296564083929855
Spin= Alpha
Occup= 0
 1 4.1187712147935214e-15
 2 -2.1704871789490506e-14
 3 -0.68225555663586834
 4 -8.2133191790281465e-07
 5 5.1956045686981754e-15
 6 -1.1898727742264576e-15
 7 6.0213195886959528e-15
 8 0.54832072902399942
 9 3.790734451064299e-05
 10 -8.649811701339187e-16
 11 -6.4094495402328948e-07
 12 4.4081061319893596e-06
 13 -0.056795526683058914
 14 1.1729731050248841e-05
 15 -5.3131929781943932e-06
 16 6.4094495284828506e-07
 17 -4.4081061266332602e-06
 18 -0.056795526683058352
 19 1.1729731061816087e-05
 20 5.3131929982072906e-06
 21 -0.00043060008083277716
 22 0.0004306000808280347
 23 0.18618105743194399
 24 -0.18579321299030419
 25 -0.18618105743193195
 26 0.18579321299031518
Sym= A
Ene= 0.60067233795025965
Spin= Alpha
Occup= 0
 1 0.17544981903553383
 2 -1.0239567550603264
 3 7.4745217399174286e-15
 4 -1.0057726025433291e-13
 5 0.42905982798893794
 6 -0.012108007771788684
 7 0.057468502835143168
 8 -8.9280806082764837e-15
 9 2.7574482774184739e-14
 10 -0.072204336412318104
 11 -0.06872824009830239
 12 0.38482510765023142
 13 0.00027402686573417659
 14 -0.37246592429875219
 15 0.50174009560376365
 16 -0.068728240098247462
 17 0.38482510764988681
 18 -0.00027402686570521858
 19 0.37246592429877884
 20 0.50174009560370203
 21 -0.25151483083505777
 22 -0.25151483083486992
 23 0.17396288534894661
 24 0.17544743156814041
 25 0.17396288534908461
 26 0.17544743156821604
Sym= A
Ene= 0.66201326020001727
Spin= Alpha
Occup= 0
 1 0.11686178752262553
 2 -0.71318157111970792
 3 -3.3918523255435722e-15
 4 -2.9527025687486908e-13
 5 -0.1036457401051263
 6 -0.04737739921663163
 7 0.32175131185190431
 8 1.8624926621404778e-15
 9 7.7529025810707017e-14
 10 -0.31286404936032591
 11 -0.03248760291354362
 12 0.18847725012209604
 13 0.00136002257495145
 14 -0.46232001639772857
 15 -0.34765009019426596
 16 -0.032487602913504512
 17 0.18847725012187116
 18 -0.0013600225749398271
 19 0.46232001639719378
 20 -0.34765009019414156
 21 0.59460312426573347
 22 0.59460312426524498
 23 -0.31168842636376293
 24 -0.31135971129356699
 25 -0.31168842636357497
 26 -0.31135971129339446
Sym= A
Ene= 0.67064825718359433
Spin= Alpha
Occup= 0
 1 -5.7095198129188631e-14
 2 3.4786260840488969e-13
 3 0.00033452758734030561
 4 -0.63857206764194785
 5 4.0292006263967168e-14
 6 2.2025936694108454e-14
 7 -1.4940739177574886e-13
 8 -9.1965500697882018e-05
 9 0.16695523245459415
 10 1.4516117154605197e-13
 11 -0.03931562332701078
 12 0.22128400530680639
 13 -0.00077243465128935037
 14 -0.59702313679978303
 15 -0.14230450970503619
 16 0.039315623327048028
 17 -0.22128400530702408
 18 -0.00077243465133755183
 19 -0.59702313680020813
 20 0.14230450970533123
 21 0.55837701505387749
 22 -0.55837701505438497
 23 -0.18845955902613534
 24 -0.19138763892860802
 25 0.18845955902637795
 26 0.19138763892894262
Sym= A
Ene= 0.70185543238368753
Spin= Alpha
Occup= 0
 1 -0.00036377258836532516
 2 0.0021952191416828742
 3 3.5470648614189052e-15
 4 2.4365049086866851e-14
 5 -2.2353013384953794e-05
 6 0.00012245892001948118
 7 -0.00080430012441065938
 8 -1.307679148103415e-15
 9 -5.6552769429097786e-15
 10 0.0007303669556334969
 11 0.00033000190012959522
 12 -0.0020045318290701141
 13 0.66263431290307861
 14 0.0008068162452284271
 15 0.00066601784652685597
 16 0.00033000190013622572
 17 -0.0020045318291170939
 18 -0.66263431290309727
 19 -0.00080681624516874264
 20 0.00066601784653960001
 21 0.0011353467762381356
 22 0.001135346776304075
 23 -0.61838934844631321
 24 0.61943484602163901
 25 -0.61838934844630189
 26 0.61943484602168208
Sym= A
Ene= 0.72295246317690409
Spin= Alpha
Occup= 0
 1 0.03267166985463052
 2 -0.18767195718782306
 3 -1.233948976660795e-13
 4 1.0677262379480042e-14
 5 0.036441264410090782
 6 -0.0090928128781929546
 7 0.056502013703057491
 8 4.5694056951192842e-14
 9 5.8536364511857205e-16
 10 -0.04232126840523362
 11 -0.16390783464445907
 12 1.0445234851136258
 13 0.00095953105355586603
 14 0.2455757301298287
 15 -0.11816296347663596
 16 -0.16390783464442238
 17 1.0445234851133884
 18 -0.00095953105297582307
 19 -0.24557573012978839
 20 -0.11816296347650837
 21 -0.58230172498847765
 22 -0.5823017249884328
 23 -0.50134009539705404
 24 -0.49939217235944006
 25 -0.50134009539638347
 26 -0.49939217235974737
Sym= A
Ene= 0.72689697988806057
Spin= Alpha
Occup= 0
 1 -1.852081875854116e-14
 2 1.0731952847954733e-13
 3 -0.28302372320742653
 4 -0.0017169866343130209
 5 -2.1800389164754331e-14
 6 4.6137448086434707e-15
 7 -2.8879140712418727e-14
 8 0.10215927448953442
 9 0.00032633502185528372
 10 2.3050855809879067e-14
 11 0.0002817298895178707
 12 -0.0018737585656564231
 13 0.67966899650707424
 14 -0.001339127799166006
 15 0.001591118609940223
 16 -0.00028172988937492439
 17 0.0018737585647476971
 18 0.67966899650705592
 19 -0.0013391277989791219
 20 -0.0015911186098556244
 21 0.0022685664483822745
 22 -0.0022685664478852676
 23 -0.5744310513418267
 24 0.57674339162872101
 25 0.57443105134223438
 26 -0.57674339162828037
Sym= A
Ene= 0.74564084250721763
Spin= Alpha
Occup= 0
 1 -1.8036337345262294e-14
 2 1.0561101152247164e-13
 3 -0.00092483757843730161
 4 0.18728177179949573
 5 -3.4702776792530047e-14
 6 2.3856245749799281e-15
 7 -1.3713440190564572e-14
 8 0.00033129687319225545
 9 -0.028179750476917405
 10 1.4464620972625908e-14
 11 -0.11851729531856996
 12 0.77247773795815777
 13 0.0022860286873885413
 14 0.20549141445416857
 15 -0.46016344359334266
 16 0.11851729531862734
 17 -0.77247773795851349
 18 0.002286028687432648
 19 0.20549141445417915
 20 0.46016344359330547
 21 -0.18917635757834297
 22 0.18917635757853876
 23 -0.62139911072601772
 24 -0.61842515614526039
 25 0.62139911072617937
 26 0.61842515614533788
Sym= A
Ene= 0.79076915852483709
Spin= Alpha
Occup= 0
 1 -2.5195741767761504e-14
 2 1.495048583006215e-13
 3 0.0001419335686275374
 4 -0.71141839317788336
 5 -6.2753537194887025e-14
 6 1.1247506072792352e-15
 7 -5.5438523127619321e-15
 8 -7.7914564648855477e-05
 9 0.1739861615067769
 10 1.3590699864023627e-14
 11 -0.12064165338580601
 12 0.77005279173163443
 13 -0.00033507265824397187
 14 0.070435732016898678
 15 0.47700408072205763
 16 0.12064165338582859
 17 -0.77005279173176278
 18 -0.00033507265823315896
 19 0.070435732016782188
 20 -0.47700408072219208
 21 -0.65925513213136777
 22 0.65925513213143638
 23 -0.03987454479881105
 24 -0.039083611772898402
 25 0.039874544798786576
 26 0.039083611772853834
Sym= A
Ene= 1.0061924483273004
Spin= Alpha
Occup= 0
 1 0.083308832817859432
 2 -0.57710302904764033
 3 3.0666681731944275e-16
 4 -1.8842676704679196e-17
 5 -0.99187786170393755
 6 -0.10837170815711802
 7 0.81681044047521234
 8 -1.7156481904432777e-16
 9 -2.2487527946611041e-16
 10 -0.63867318949230889
 11 0.020784393321350309
 12 -0.15013517714034538
 13 -5.6303588896862277e-06
 14 0.24019200709029195
 15 0.22999158645187223
 16 0.020784393321350118
 17 -0.15013517714034502
 18 5.6303588933533349e-06
 19 -0.24019200709029498
 20 0.22999158645187651
 21 -0.2034422749832823
 22 -0.2034422749832871
 23 0.14607989101829452
 24 0.14690425895680628
 25 0.14607989101830046
 26 0.14690425895680664
