[Molden Format]
[Title]
generated by GANSU
[Atoms] (Angs)
C 1 6 1.118 -0.893 0
C 2 6 0 0.162 0
O 3 8 0.138 1.37 0
H 4 1 2.085 -0.401 0
H 5 1 1.031 -1.522 0.881
H 6 1 1.031 -1.522 -0.881
O 7 8 -1.258 -0.433 0
H 8 1 -1.893 0.327 0
[GTO]
1 0
 s 3 1.00
    13.0451 0.535328
    3.53051 0.444635
    71.6168 0.154329
 s 3 1.00
    2.94125 -0.0999672
    0.683483 0.399513
    0.22229 0.700115
 p 3 1.00
    0.22229 0.391957
    0.683483 0.607684
    2.94125 0.155916

2 0
 s 3 1.00
    71.6168 0.154329
    13.0451 0.535328
    3.53051 0.444635
 s 3 1.00
    2.94125 -0.0999672
    0.683483 0.399513
    0.22229 0.700115
 p 3 1.00
    0.22229 0.391957
    0.683483 0.607684
    2.94125 0.155916

3 0
 s 3 1.00
    130.709 0.154329
    6.44361 0.444635
    23.8089 0.535328
 s 3 1.00
    5.03315 -0.0999672
    1.1696 0.399513
    0.380389 0.700115
 p 3 1.00
    0.380389 0.391957
    1.1696 0.607684
    5.03315 0.155916

4 0
 s 3 1.00
    0.168855 0.444635
    0.623914 0.535328
    3.42525 0.154329

5 0
 s 3 1.00
    0.168855 0.444635
    0.623914 0.535328
    3.42525 0.154329

6 0
 s 3 1.00
    0.168855 0.444635
    0.623914 0.535328
    3.42525 0.154329

7 0
 s 3 1.00
    23.8089 0.535328
    130.709 0.154329
    6.44361 0.444635
 s 3 1.00
    0.380389 0.700115
    5.03315 -0.0999672
    1.1696 0.399513
 p 3 1.00
    5.03315 0.155916
    1.1696 0.607684
    0.380389 0.391957

8 0
 s 3 1.00
    0.623914 0.535328
    3.42525 0.154329
    0.168855 0.444635

[MO]
Sym= A
Ene= -20.3002
Spin= Alpha
Occup= 2
 1 -1.9383834960667694e-05
 2 0.00030858688502812312
 3 -0.00022395088464554927
 4 -5.1509751344008315e-05
 5 4.4189872846836741e-16
 6 0.00050150724913745437
 7 -0.0043993466141992827
 8 0.0034055625163163512
 9 0.0016764272254969797
 10 8.3360062126504179e-17
 11 0.0010397079004067732
 12 0.00028000689579772361
 13 -0.00043980207091712091
 14 -3.2411588937597202e-05
 15 2.7817754019970789e-16
 16 -5.2444450693951426e-05
 17 -6.6744702643100357e-05
 18 -6.6744702641665889e-05
 19 0.99416750481193339
 20 0.026076178783029185
 21 0.00078551293116349379
 22 0.0029662354896981278
 23 1.7190543962344693e-17
 24 -0.0056557342281761524
Sym= A
Ene= -20.260693602604153
Spin= Alpha
Occup= 2
 1 2.1944996720784292e-05
 2 -0.00017621062141886281
 3 -0.00023817760115877983
 4 -0.00036774226372102197
 5 -1.0764358222170315e-16
 6 -0.00053758180714157404
 7 0.0072931433698966725
 8 0.00059475799764574673
 9 0.0055150812739847123
 10 9.8854090157908429e-18
 11 -0.99423630203874303
 12 -0.026217109744248818
 13 0.00051486989879165248
 14 0.0042712810478038564
 15 -4.7286174500730016e-16
 16 0.00017484580061713728
 17 -4.0949428144626554e-05
 18 -4.0949428145813044e-05
 19 0.0011185777590159705
 20 -0.00029801919747889013
 21 5.5023328024978428e-05
 22 -0.00036245778756993657
 23 -1.6581486620790475e-18
 24 0.00014101081815523427
Sym= A
Ene= -11.17214469544942
Spin= Alpha
Occup= 2
 1 -0.0010005624997506154
 2 -0.0050818198561151801
 3 0.0023771100465194753
 4 -0.0024233710504158739
 5 2.1546801671208498e-16
 6 0.9927674559465357
 7 0.031164937302420086
 8 -1.5604080435764076e-05
 9 0.00046645108542522646
 10 -4.3164039702051835e-17
 11 0.00012075195139301536
 12 -0.0056013128957626565
 13 0.00016133096012201895
 14 0.0011350810474571413
 15 8.281209348456062e-17
 16 -9.5181193323342519e-05
 17 -0.00017162995570934998
 18 -0.00017162995570885317
 19 0.00035642480744097957
 20 -0.0041852745642830032
 21 -0.0018560886389526034
 22 -0.00061968401203039058
 23 -1.276530428980742e-17
 24 -0.0014297226110184065
Sym= A
Ene= -11.065397734729737
Spin= Alpha
Occup= 2
 1 0.99192693494177409
 2 0.037930101490727432
 3 -1.4463469225730438e-06
 4 -6.8216167349169311e-05
 5 -2.2871217594179848e-16
 6 0.0019830705353086741
 7 -0.0057207017834480156
 8 -0.002703845725785753
 9 0.0025216299860998611
 10 7.7204612519858104e-17
 11 -2.3097737211096557e-05
 12 0.00018992994070748338
 13 0.00017489161298112242
 14 -8.6530424410609467e-05
 15 7.0457506595241196e-18
 16 -0.0069980028854267507
 17 -0.0070107029469555883
 18 -0.0070107029469560055
 19 -3.5912615759610142e-06
 20 0.00022029341172919911
 21 4.3561730311679985e-05
 22 5.3259071286115506e-05
 23 -3.0416876290783137e-18
 24 -9.9928745858873994e-05
Sym= A
Ene= -1.3738428462680732
Spin= Alpha
Occup= 2
 1 -0.019281744681306074
 2 0.048502165599509525
 3 -0.017750668522321662
 4 0.014253335006953409
 5 -7.0863699612638023e-16
 6 -0.13244385733796141
 7 0.30949775573739474
 8 -0.046284816502503219
 9 0.068261219205413337
 10 5.6683952817035624e-17
 11 -0.14858404506996034
 12 0.50874011039785449
 13 -0.01930838089599031
 14 -0.096366221190077914
 15 4.6805366617345161e-16
 16 0.0059973076736448312
 17 0.0057209570518315525
 18 0.0057209570518331259
 19 -0.14785255174358725
 20 0.5227351664870673
 21 0.035045283020714579
 22 0.06625737624022314
 23 -2.1725574006892763e-17
 24 0.081576023738448702
Sym= A
Ene= -1.271794881267849
Spin= Alpha
Occup= 2
 1 0.0018387879608106725
 2 -0.0074397821040343461
 3 -0.00063261779670703512
 4 -0.0067961338923993343
 5 -8.0124286278712847e-16
 6 0.033054752205036377
 7 -0.070838180731131933
 8 -0.087923053565316198
 9 -0.15058858446882206
 10 1.8994426767814162e-15
 11 0.16114694274210198
 12 -0.56937861898048392
 13 0.0024869219735329431
 14 0.080500455313340352
 15 1.8286197057465395e-15
 16 -0.0036716742835178969
 17 0.0016810729391951048
 18 0.0016810729391960829
 19 -0.17494645914968371
 20 0.63712507119412543
 21 0.0076098372307338499
 22 0.055437838033441225
 23 -1.2271692834887699e-16
 24 0.11246741202675159
Sym= A
Ene= -0.96434862304377811
Spin= Alpha
Occup= 2
 1 -0.20760296954559143
 2 0.58570070765274063
 3 -0.021663354260030247
 4 0.016117883972496784
 5 -5.7208223140624792e-16
 6 -0.07199319201967698
 7 0.21055414851363966
 8 0.10117751909354036
 9 -0.13083361723180989
 10 -1.5579457308341005e-17
 11 0.04301187927602635
 12 -0.16725145756186549
 13 0.02932950567814881
 14 -0.016612235318612403
 15 -1.9878392086883255e-16
 16 0.15218156816140332
 17 0.15621974162198163
 18 0.15621974162197974
 19 0.028086459600557438
 20 -0.11298433215073483
 21 0.058178977288402371
 22 -0.030170045016452467
 23 2.4446228967221207e-17
 24 -0.071528535502754204
Sym= A
Ene= -0.72547227909174217
Spin= Alpha
Occup= 2
 1 0.067513246783756628
 2 -0.21202843041283934
 3 -0.17489253831148746
 4 0.10425687264647572
 5 1.1624990395860973e-15
 6 -0.14413408470316694
 7 0.49889558820693541
 8 -0.077221639541496606
 9 -0.12936406830463429
 10 9.3945291481170758e-17
 11 0.063002567776035981
 12 -0.28091382497904116
 13 -0.024724593514752469
 14 -0.11369809641137867
 15 -2.0353882430558326e-16
 16 -0.16243105702558283
 17 -0.11222305001370388
 18 -0.11222305001370346
 19 0.035470509736251064
 20 -0.15575658237779294
 21 0.308534168845775
 22 -0.032266531133964133
 23 4.2464233047930361e-16
 24 -0.28503615360376894
Sym= A
Ene= -0.60591022258177762
Spin= Alpha
Occup= 2
 1 0.012710467252696124
 2 -0.041678266163657524
 3 0.035085931850063735
 4 0.30622785454415019
 5 -7.7832470925258065e-16
 6 -0.058882392917070418
 7 0.19270530279678155
 8 0.29689709563497346
 9 0.088424432074008644
 10 4.6855961177285738e-15
 11 0.071022509259501029
 12 -0.35228113662425958
 13 0.17239118900442263
 14 -0.23513605218698949
 15 3.4128821819402546e-15
 16 0.13964788715303669
 17 -0.18670818325153052
 18 -0.18670818325152952
 19 0.0023477518375605668
 20 -0.0085150927567526971
 21 -0.20458648110166849
 22 0.058991408181560567
 23 2.1314579195272247e-15
 24 0.19666168030313558
Sym= A
Ene= -0.58443697271739725
Spin= Alpha
Occup= 2
 1 0.012142720222693981
 2 -0.048749253857268908
 3 -0.14689375732616894
 4 0.09590508759579644
 5 -1.7453570776840879e-14
 6 0.041630765772262018
 7 -0.14012022132248381
 8 0.24712125729514939
 9 -0.2309578076056728
 10 -1.053143944958704e-16
 11 -0.074310116746466107
 12 0.37799512782795491
 13 0.26520007744898971
 14 0.22362511708992233
 15 3.3753928576661977e-15
 16 -0.092101158021718393
 17 -0.058713505356527952
 18 -0.058713505356497726
 19 -0.07002765670599416
 20 0.34574776508001231
 21 -0.04770430007750439
 22 -0.32660716057916506
 23 -1.2952667234021552e-15
 24 -0.14199347628668399
Sym= A
Ene= -0.58247555595353295
Spin= Alpha
Occup= 2
 1 5.2095730073231366e-16
 2 -2.7740715590745284e-15
 3 -8.1303556660692511e-15
 4 -1.9514705654676139e-15
 5 0.39158621605758243
 6 1.0745398669510778e-15
 7 -3.667901402479539e-15
 8 8.5241271118482818e-15
 9 -5.7901501190015833e-15
 10 0.29476571878656976
 11 -2.2167520322829221e-15
 12 1.093609364958295e-14
 13 7.4619371129146569e-15
 14 4.7169151821213561e-15
 15 0.17494550754198196
 16 -8.3981288545020087e-15
 17 0.31219400317765877
 18 -0.31219400317765444
 19 -1.8159412037653438e-15
 20 9.0947291595234502e-15
 21 -2.9446349358576928e-15
 22 -9.4256058269806646e-15
 23 0.22203794954164549
 24 -2.1830546577665121e-15
Sym= A
Ene= -0.52388932728898752
Spin= Alpha
Occup= 2
 1 0.0011677942963588791
 2 -0.0061450349881892212
 3 0.37022085482136374
 4 0.22908582736968425
 5 -1.3054935570494363e-14
 6 0.024059760614587093
 7 -0.071657926877656319
 8 -0.16884993481569135
 9 -0.045597660441690079
 10 2.3164449766575367e-14
 11 -0.023902545866362451
 12 0.12538483897000746
 13 -0.072972533598586201
 14 0.13081827767113213
 15 2.001181962414403e-14
 16 0.4653137942594836
 17 -0.17612328132413022
 18 -0.17612328132410587
 19 -0.023730894034953865
 20 0.11611732177807557
 21 0.1876441466486799
 22 -0.085342007219184737
 23 2.2742159013780888e-14
 24 -0.20991423499321343
Sym= A
Ene= -0.4891541803194871
Spin= Alpha
Occup= 2
 1 -5.81373725365932e-16
 2 2.749281740744596e-15
 3 -1.6630614031962338e-14
 4 -1.5620306480070807e-14
 5 -0.29619064855252752
 6 -1.5282349450505e-15
 7 4.0363479216482757e-15
 8 3.6963367727934616e-15
 9 8.3056500583765073e-15
 10 0.31779631841899436
 11 1.9317429318896354e-15
 12 -1.1165189401092495e-14
 13 -2.1709617924887597e-15
 14 -1.039866372087209e-14
 15 0.23622011637322329
 16 -2.7619787706003866e-14
 17 -0.27238196116004065
 18 0.27238196116006708
 19 3.2033968061204765e-15
 20 -1.51061746016203e-14
 21 -6.0782487237020366e-15
 22 1.0010736658401586e-14
 23 0.43158480553593925
 24 1.4565557172539906e-14
Sym= A
Ene= -0.45866350186489041
Spin= Alpha
Occup= 2
 1 0.015066259240815704
 2 -0.059897187537520671
 3 0.1243618792264686
 4 -0.18849498462576905
 5 -3.446294358465721e-17
 6 0.0098862526229792306
 7 -0.048054604274863987
 8 0.0060672964373155846
 9 0.28735969742697631
 10 -5.7434601719708509e-16
 11 0.043032954987353954
 12 -0.2456654397571551
 13 0.0071197749519051516
 14 -0.35007056582691187
 15 -6.9618853990326124e-16
 16 0.0086143907470878477
 17 0.093773756206929113
 18 0.093773756206930653
 19 -0.072421338252986814
 20 0.37917035606763422
 21 -0.018477283024662373
 22 -0.41459058397370374
 23 -1.5848348213510768e-15
 24 -0.28385077100822242
Sym= A
Ene= -0.35451194266648683
Spin= Alpha
Occup= 2
 1 1.9350269442751454e-16
 2 -8.2013985664415453e-16
 3 6.5674854061313232e-16
 4 1.3007015011880302e-15
 5 0.044632597809978233
 6 3.3898721666665579e-16
 7 -7.9743306530344537e-16
 8 -2.1314135701896746e-16
 9 -2.4025864925730486e-15
 10 -0.25234198320592394
 11 -5.807036278014462e-17
 12 1.2550664574963777e-15
 13 2.7827577286582796e-15
 14 1.3229379501887422e-15
 15 -0.46422554837490215
 16 6.3193417160929419e-15
 17 0.068874353892693987
 18 -0.068874353892700899
 19 -1.2794866274334888e-15
 20 5.7419296277280276e-15
 21 -1.0062347288274191e-15
 22 -2.4449316232317302e-15
 23 0.53034178597190296
 24 -3.7265411372229775e-15
Sym= A
Ene= -0.34348174155415651
Spin= Alpha
Occup= 2
 1 -0.02788916436102638
 2 0.1259894895582627
 3 -0.1650666838273743
 4 0.1837340036049091
 5 -9.2252184156977196e-17
 6 -0.0093253240653372281
 7 0.021179985450529258
 8 0.095918444655624088
 9 -0.03838542110600679
 10 3.4479902774034742e-17
 11 0.0019681310428492152
 12 -0.0053141577645808465
 13 -0.63449766224063275
 14 0.056833740395046704
 15 -5.9317547873955561e-16
 16 -0.039489625913342541
 17 -0.06750286756635622
 18 -0.067502867566356373
 19 -0.00069095050501445123
 20 0.0020655223727247462
 21 -0.21331145122867393
 22 -0.22863312782405701
 23 8.2372072414992435e-16
 24 0.050339168970887957
Sym= A
Ene= 0.30480116302356602
Spin= Alpha
Occup= 0
 1 -5.1670048363101188e-16
 2 3.280319242289536e-15
 3 -2.9047146158062422e-16
 4 6.570180549837224e-17
 5 0.063899743448450355
 6 3.1178383811561621e-16
 7 -1.6968163071705639e-15
 8 -5.637815636995751e-16
 9 4.2247912247436352e-16
 10 0.71025409306518827
 11 -8.5843114972258276e-17
 12 3.8398385599090837e-16
 13 1.250338254743504e-16
 14 -3.4553286353249778e-17
 15 -0.52364436599194131
 16 -1.1134135823200082e-15
 17 -0.20259951271586157
 18 0.20259951271585933
 19 -9.6408533968074585e-17
 20 3.9593741122527863e-16
 21 4.2595766688191757e-16
 22 3.2283270501859544e-16
 23 -0.22193645579825641
 24 -1.8080416361210235e-16
Sym= A
Ene= 0.55277687670389941
Spin= Alpha
Occup= 0
 1 -0.062506115240224536
 2 0.34837591578977156
 3 -0.15718438252172909
 4 0.38959756702909393
 5 4.7939737041371741e-15
 6 0.12161635614647784
 7 -0.66591692279810055
 8 0.13256743612421512
 9 0.31227655966695728
 10 -1.536522677579383e-15
 11 -0.012633500951252565
 12 0.055186096557576843
 13 -0.077131011896152665
 14 -0.042038968434782664
 15 7.3165681448207497e-16
 16 -0.27297057708600669
 17 0.10490326550161232
 18 0.10490326550162025
 19 -0.11651820070799661
 20 0.74530684906710898
 21 0.013283205712352492
 22 0.4618631392278319
 23 4.4912990808146413e-16
 24 -0.82229954579244524
Sym= A
Ene= 0.63628046906653635
Spin= Alpha
Occup= 0
 1 0.063385743311679496
 2 -0.35615521083227036
 3 0.76468225885962615
 4 -0.15045631063940304
 5 -1.9139276232446059e-14
 6 -0.14662508750587486
 7 0.88585913649954973
 8 0.42581177766684253
 9 -0.11793493923573531
 10 4.6140691325445574e-15
 11 0.038957262795478537
 12 -0.25727291610365371
 13 -0.10226391073101575
 14 0.27955917356172366
 15 -2.3890892671391013e-15
 16 -0.56073339282224832
 17 0.16326161334491968
 18 0.16326161334488642
 19 -0.020128436165478689
 20 0.13810468264991613
 21 -0.18696760645392843
 22 0.13466032897009872
 23 -8.2600976788422528e-16
 24 -0.33832543023442935
Sym= A
Ene= 0.66217171571128908
Spin= Alpha
Occup= 0
 1 -0.0017227246417400959
 2 0.0065975924345759544
 3 0.28851768291200441
 4 0.39175024162028005
 5 1.7761566126361681e-14
 6 0.087446839876305235
 7 -0.48993642647865865
 8 0.3705439335618621
 9 0.12465867447987716
 10 -6.0055931968957085e-15
 11 -0.0084395839560957118
 12 0.04938296804457333
 13 -0.093157201746241966
 14 -0.054911437742607282
 15 -6.7606497608843732e-16
 16 -0.53845919614234894
 17 0.29327321583891658
 18 0.29327321583894533
 19 -0.00035682575566719382
 20 -0.016011223860749536
 21 0.59501025003357289
 22 -0.13304899324758224
 23 1.2416302555849697e-15
 24 0.68822086739408905
Sym= A
Ene= 0.70701755946445555
Spin= Alpha
Occup= 0
 1 -3.1736561766010034e-14
 2 2.0606140105143633e-13
 3 4.5902271389454501e-14
 4 -7.370090149428444e-14
 5 0.94741380399337161
 6 3.5931865521442643e-16
 7 -1.8446247501145626e-15
 8 7.2753175808713889e-15
 9 -7.9149937268753217e-15
 10 -0.20960922208961486
 11 -1.2431828586494203e-15
 12 7.1087426804377751e-15
 13 -1.75035551217505e-15
 14 -5.5731321075060284e-15
 15 0.077856419095788928
 16 -9.225788438846162e-14
 17 -0.84525021191792538
 18 0.84525021191767147
 19 -1.2231257653768422e-15
 20 6.5944186473227242e-15
 21 -7.5611586523075286e-16
 22 4.1749596166299992e-15
 23 0.04700543390205035
 24 -5.5498275648032716e-15
Sym= A
Ene= 0.71787666923964044
Spin= Alpha
Occup= 0
 1 0.16328295993755157
 2 -1.0525394618100847
 3 -0.13753993133975706
 4 0.60666026910051984
 5 1.3376464108948257e-13
 6 -0.047632161588417946
 7 0.27314796370243882
 8 -0.32473684049424506
 9 0.12128079903896875
 10 -2.8805181201531112e-14
 11 0.02443198047046018
 12 -0.1671010547238464
 13 0.099135697488979643
 14 0.13995335899155997
 15 1.020067249619374e-14
 16 0.27821294495178212
 17 0.79963379720765637
 18 0.79963379720789629
 19 0.028049071040802238
 20 -0.17811731373757078
 21 -0.18951051296090923
 22 -0.097849627189050728
 23 6.5108118457283137e-15
 24 -0.052589654634918111
Sym= A
Ene= 0.75262498712285386
Spin= Alpha
Occup= 0
 1 -0.16708493214066622
 2 1.0701722051571325
 3 0.27477849983089009
 4 0.41225027455490582
 5 -5.69358218793785e-14
 6 -0.015132429015505407
 7 0.072857828715133036
 8 -0.68324917068472935
 9 0.18148493601103416
 10 1.1816501644936553e-14
 11 0.014136913327260824
 12 -0.10088445327362806
 13 0.20362895790295363
 14 0.070355535278789946
 15 -4.3502204900424942e-15
 16 -0.88704429731334844
 17 -0.17734075047616693
 18 -0.17734075047627043
 19 0.046264781822852895
 20 -0.3027759428256554
 21 -0.22461696743437068
 22 -0.20292117531442222
 23 -2.43937002966038e-15
 24 0.025275227657786486
Sym= A
Ene= 0.99388058805332524
Spin= Alpha
Occup= 0
 1 0.03280585930252012
 2 -0.23044653039809498
 3 0.32309167938684774
 4 0.17180253884725677
 5 4.1678290024481911e-15
 6 0.069357694258126393
 7 -0.51034568204162023
 8 -0.15197745580088989
 9 -1.0141046022899245
 10 -6.8021465470232996e-16
 11 -0.10832748079884061
 12 0.82006004994993054
 13 -0.064026379104707154
 14 -0.64141584956985986
 15 1.6635220447907888e-16
 16 -0.20211077000676511
 17 0.17296375214562099
 18 0.17296375214562823
 19 0.013077621108867255
 20 -0.094024848899076599
 21 -0.18711614798310103
 22 0.093166389534980409
 23 1.9301418863234158e-16
 24 -0.085771198034592724
