[Molden Format]
[Title]
generated by GANSU
[Atoms] (Angs)
As 1 33 1.9752 1.7634 -0.0187
As 2 33 4.4776 1.5913 -0.0304
O 3 8 3.2647 2.3219 -1.205
O 4 8 3.1359 0.337 0.0026
O 5 8 3.2794 2.3679 1.1293
[GTO]
1 0
 s 3 1.00
    425.699 0.535328
    115.211 0.444635
    2337.07 0.154329
 s 3 1.00
    193.197 -0.0999672
    44.8948 0.399513
    14.6012 0.700115
 p 3 1.00
    193.197 0.155916
    44.8948 0.607684
    14.6012 0.391957
 s 3 1.00
    15.8716 -0.227764
    1.86795 0.916677
    4.84135 0.217544
 p 3 1.00
    15.8716 0.00495151
    4.84135 0.577766
    1.86795 0.484646
 s 3 1.00
    1.10768 -0.308844
    0.408804 0.0196064
    0.180532 1.13103
 p 3 1.00
    0.408804 0.571523
    0.180532 0.549895
    1.10768 -0.121547
 d 3 1.00
    1.86795 0.286573
    4.84135 0.655547
    15.8716 0.219768

2 0
 s 3 1.00
    115.211 0.444635
    425.699 0.535328
    2337.07 0.154329
 s 3 1.00
    193.197 -0.0999672
    44.8948 0.399513
    14.6012 0.700115
 p 3 1.00
    193.197 0.155916
    44.8948 0.607684
    14.6012 0.391957
 s 3 1.00
    1.86795 0.916677
    4.84135 0.217544
    15.8716 -0.227764
 p 3 1.00
    4.84135 0.577766
    15.8716 0.00495151
    1.86795 0.484646
 s 3 1.00
    1.10768 -0.308844
    0.408804 0.0196064
    0.180532 1.13103
 p 3 1.00
    1.10768 -0.121547
    0.180532 0.549895
    0.408804 0.571523
 d 3 1.00
    15.8716 0.219768
    4.84135 0.655547
    1.86795 0.286573

3 0
 s 3 1.00
    6.44361 0.444635
    23.8089 0.535328
    130.709 0.154329
 s 3 1.00
    0.380389 0.700115
    1.1696 0.399513
    5.03315 -0.0999672
 p 3 1.00
    0.380389 0.391957
    5.03315 0.155916
    1.1696 0.607684

4 0
 s 3 1.00
    130.709 0.154329
    6.44361 0.444635
    23.8089 0.535328
 s 3 1.00
    0.380389 0.700115
    1.1696 0.399513
    5.03315 -0.0999672
 p 3 1.00
    0.380389 0.391957
    1.1696 0.607684
    5.03315 0.155916

5 0
 s 3 1.00
    130.709 0.154329
    6.44361 0.444635
    23.8089 0.535328
 s 3 1.00
    0.380389 0.700115
    1.1696 0.399513
    5.03315 -0.0999672
 p 3 1.00
    5.03315 0.155916
    1.1696 0.607684
    0.380389 0.391957

[MO]
Sym= A
Ene= -428
Spin= Alpha
Occup= 2
 1 -0.016577991334711144
 2 -0.00025675038039897288
 3 -3.8607552593192306e-07
 4 2.5819057701325118e-08
 5 1.8573907893916926e-09
 6 0.00010100118238054473
 7 2.1030761588320252e-06
 8 -1.4038703481159085e-07
 9 -1.016974349282535e-08
 10 -2.6476642842710214e-05
 11 -2.6437250831165616e-05
 12 1.7800887051651862e-06
 13 1.2588598289851419e-07
 14 -3.1727793966718613e-05
 15 -3.0465988349674509e-05
 16 -3.0459263004728416e-05
 17 9.9432109706102307e-08
 18 6.7269977662485079e-09
 19 -4.437143868176852e-10
 20 0.99374798273932119
 21 0.015343127194885569
 22 -3.4783270695924602e-06
 23 2.3891402209363175e-07
 24 1.670491924128113e-08
 25 -0.011339940681470354
 26 7.032852968940756e-06
 27 -4.6605315849949796e-07
 28 -3.4969417279428054e-08
 29 0.00024800249674727205
 30 -5.9024716692685873e-05
 31 3.8515082971901007e-06
 32 2.9828803574246882e-07
 33 0.0042581421179590682
 34 0.0042575808646216308
 35 0.0042575800123818095
 36 -3.5486930857192012e-08
 37 -3.6767346304172668e-09
 38 4.8154705136615366e-10
 39 5.9963290490264422e-06
 40 -4.34619184886013e-05
 41 -2.2188903715393587e-05
 42 9.6639041524301366e-06
 43 -1.4750455649298223e-05
 44 6.0145349420276655e-06
 45 -4.3707452965857511e-05
 46 -2.3884445781569777e-05
 47 -1.5362194142223497e-05
 48 4.485242218543671e-07
 49 5.9987657518525861e-06
 50 -4.3491085112872365e-05
 51 -2.2005413830675742e-05
 52 1.0249090220368616e-05
 53 1.4636900144819661e-05
Sym= A
Ene= -427.99995361781509
Spin= Alpha
Occup= 2
 1 0.99374803024413882
 2 0.015343099031738375
 3 3.4666287347742692e-06
 4 -2.3714328527573122e-07
 5 -1.6294913558781223e-08
 6 -0.011343189325938131
 7 -6.9588265996034117e-06
 8 4.8517891477514292e-07
 9 3.4119388420228319e-08
 10 0.00024716099368043623
 11 5.8080150774687914e-05
 12 -4.0713623864324555e-06
 13 -2.9263286220081542e-07
 14 0.0042595929288026489
 15 0.0042590735758683169
 16 0.0042590778769209482
 17 -4.5588742180344573e-08
 18 -3.8588228516287391e-09
 19 -4.2790450456716792e-10
 20 0.016580579754998232
 21 0.00025520622482923797
 22 2.7002468027716222e-07
 23 -1.9080271675949745e-08
 24 -1.2724931108238365e-09
 25 -0.00027744591811896646
 26 -1.8685330020135884e-06
 27 1.3189527862455237e-07
 28 8.8076427652456762e-09
 29 -1.8206175936415628e-05
 30 2.4464005069759149e-05
 31 -1.7184282910938607e-06
 32 -1.1435691919326456e-07
 33 0.00011038516272872387
 34 0.00011162697768114402
 35 0.00011163411211625646
 36 1.0129117098302759e-07
 37 6.6337937107677496e-09
 38 -4.5419008472994427e-10
 39 6.2030051660616878e-06
 40 -4.4987503873169637e-05
 41 2.2428396581974582e-05
 42 6.8741242802353167e-06
 43 -1.5477258367462283e-05
 44 6.2003302945757975e-06
 45 -4.4970430785691757e-05
 46 2.0777538486255401e-05
 47 -1.893330123357438e-05
 48 2.5155363708487065e-07
 49 6.1990258965032403e-06
 50 -4.4936033880143325e-05
 51 2.2607384820040534e-05
 52 7.4646233569302625e-06
 53 1.4912982507655097e-05
Sym= A
Ene= -54.905294107850445
Spin= Alpha
Occup= 2
 1 -0.29667489991304014
 2 0.74562120720345326
 3 0.00026373373570306324
 4 -1.7362111395289156e-05
 5 -1.1524029790215996e-06
 6 -1.1649292340410717
 7 0.00066801929335946644
 8 -4.605289846966155e-05
 9 -3.2456027685781929e-06
 10 -0.025996350186532392
 11 -0.0069086826934533496
 12 0.0004776392817322382
 13 3.3848071427949098e-05
 14 0.5452830125772502
 15 0.54549174750932428
 16 0.54549232452873919
 17 1.6839500860740079e-05
 18 1.2001868410829052e-06
 19 -3.1322074902738418e-08
 20 0.30160055507710926
 21 -0.75799805748818472
 22 0.00026852052681885401
 23 -1.9644100145097486e-05
 24 -1.2107986488972341e-06
 25 1.1841547530733239
 26 0.00067399082793917053
 27 -4.5398475993663018e-05
 28 -3.3014721392178377e-06
 29 0.026367462495618714
 30 -0.0069513062270077537
 31 0.00046567914289248862
 32 3.4138866783520133e-05
 33 -0.55428563423508448
 34 -0.55449370531217834
 35 -0.55449472333819105
 36 -1.6020356418175202e-05
 37 -1.1861190182377326e-06
 38 1.0836774541616445e-07
 39 6.6680081969056621e-06
 40 -5.4323275164599136e-05
 41 -0.0033478978427022026
 42 0.00023957256079990089
 43 -7.011657895892526e-07
 44 7.366174253868686e-06
 45 -7.3555687155448681e-05
 46 -0.0033551542445574515
 47 0.00020742537734597628
 48 1.6010889219342308e-05
 49 6.8802904945120607e-06
 50 -6.007125814959682e-05
 51 -0.0033471879046663333
 52 0.00024099486292346426
 53 3.272079061098705e-05
Sym= A
Ene= -54.902116967169562
Spin= Alpha
Occup= 2
 1 0.30173443559653829
 2 -0.75816048754419363
 3 -0.00031163572187132128
 4 2.0555272444917791e-05
 5 1.3809078463150442e-06
 6 1.1770194464444985
 7 -0.00034388795353298008
 8 2.4452591654643066e-05
 9 1.6855251998547802e-06
 10 0.022413697556829766
 11 0.0023490684210296072
 12 -0.00017036483655073992
 13 -1.2257145692131317e-05
 14 -0.55115598085880313
 15 -0.55112673369005727
 16 -0.55112605015592608
 17 1.9729721867348753e-06
 18 7.0006097224239644e-08
 19 -5.6073109797368441e-08
 20 0.29681054829862363
 21 -0.74578576821648224
 22 0.00030692556815106747
 23 -2.2330892434949289e-05
 24 -1.3926122315928668e-06
 25 1.1576981034508536
 26 0.0003334381210151684
 27 -2.149111771080321e-05
 28 -1.6945065533366285e-06
 29 0.021989932291257293
 30 -0.0022430012798288473
 31 0.00013686220239472426
 32 1.2078204315200136e-05
 33 -0.54211174033235865
 34 -0.54207918091514629
 35 -0.54207888551919825
 36 3.4519958799606609e-06
 37 1.0480500141253977e-07
 38 1.8701781537034086e-08
 39 0.00081611492790739139
 40 -0.0070552056558077199
 41 9.423116809108646e-05
 42 0.0011247606069434862
 43 -0.0020661658091484518
 44 0.00081632883786492453
 45 -0.0070700823805087219
 46 -0.00013188922252480923
 47 -0.0023466243195064442
 48 4.7419474099222277e-05
 49 0.00081611737167836299
 50 -0.0070536590424978233
 51 0.00011967027332149174
 52 0.0012052127681706636
 53 0.0020193742936040582
Sym= A
Ene= -49.559826380274487
Spin= Alpha
Occup= 2
 1 5.6345951719960431e-08
 2 -1.2158589482180121e-07
 3 0.00016722260763173789
 4 0.0032635629630460945
 5 -0.013242078741231572
 6 -6.2349958398694173e-07
 7 6.3945519768236633e-06
 8 0.00012415229649893628
 9 -0.00050388881625508487
 10 -3.4821699351667419e-07
 11 -1.98274893820896e-06
 12 -3.0953345688481123e-05
 13 0.00012715943573426676
 14 3.3962537751547274e-07
 15 2.8573652499399682e-07
 16 2.4536431192536723e-07
 17 6.8264937536187587e-07
 18 -2.689525170931449e-06
 19 4.3498486753997622e-07
 20 -1.4216028402571772e-06
 21 3.5762034812456662e-06
 22 -0.0029657855887398918
 23 -0.068057704903506711
 24 0.28908991868723655
 25 -4.6839126347529217e-06
 26 -0.00011210530136424859
 27 -0.0025722193580430554
 28 0.010926193268962901
 29 -3.7670973189124155e-08
 30 2.0012540054637157e-05
 31 0.00045710423552249203
 32 -0.0019424394084439605
 33 3.6938015707057035e-06
 34 -1.4628928232615033e-06
 35 4.283283155562242e-06
 36 1.9131960102022618e-05
 37 -8.2424168755248744e-05
 38 5.9563103595434111e-07
 39 3.798596558818185e-05
 40 -0.000323376576563859
 41 -0.00017319468474725981
 42 6.7686164527131735e-05
 43 -4.9679923571382915e-05
 44 -9.7583989584927261e-06
 45 8.3302752328345803e-05
 46 4.7392195839049211e-05
 47 1.6705300905352701e-05
 48 8.9141935481243555e-05
 49 -2.8214561077987729e-05
 50 0.00024026791003375455
 51 0.00012543343569382937
 52 -9.1077052351615931e-05
 53 -1.263700268362908e-05
Sym= A
Ene= -49.559825136393997
Spin= Alpha
Occup= 2
 1 -2.4584757297112653e-07
 2 5.5879317023745039e-07
 3 -0.0010389531585174503
 4 -0.014463373651986737
 5 -0.0032625890148367414
 6 1.5319909058284014e-06
 7 -3.960554281718455e-05
 8 -0.00055005874717070158
 9 -0.00012411030200568676
 10 9.5501253658257075e-07
 11 1.0817344488775328e-05
 12 0.0001354345223097152
 13 3.0902630766623147e-05
 14 -1.0629506315685725e-06
 15 -6.1480154424787447e-07
 16 -4.71110271336102e-07
 17 -3.0564747397091201e-06
 18 -6.7062672337704935e-07
 19 1.4037651932089146e-07
 20 4.2045978616166503e-06
 21 -1.0589977269035068e-05
 22 0.019257963370938068
 23 0.28839133772930181
 24 0.068105235928926616
 25 1.4491804003537828e-05
 26 0.00072792074754482363
 27 0.010899673480310845
 28 0.0025740498464006138
 29 3.4324555821020868e-07
 30 -0.00012986200439762952
 31 -0.0019372566405077508
 32 -0.00045767795806519719
 33 -1.6396747228825616e-05
 34 7.5860958268574108e-06
 35 -1.1390228721265422e-05
 36 -8.1130735912431502e-05
 37 -1.943939500084901e-05
 38 2.0625934192225616e-07
 39 -1.0460989937216928e-05
 40 8.9032440686723411e-05
 41 5.4209579864672042e-05
 42 6.4624430678935857e-05
 43 5.9561062012871686e-05
 44 3.792476574179768e-05
 45 -0.00032376806064359946
 46 -0.00018271894156444101
 47 -5.7630249942164515e-05
 48 2.5263887713306453e-05
 49 -2.7430681130195916e-05
 50 0.00023357023558130165
 51 0.00013020103296653752
 52 2.1033818884363144e-05
 53 -7.858235343293014e-05
Sym= A
Ene= -49.559778029698975
Spin= Alpha
Occup= 2
 1 2.1232449480639775e-06
 2 -5.3750942269095563e-06
 3 0.020666953416816167
 4 0.2952287352230063
 5 0.024314777534404877
 6 8.438392019654739e-06
 7 0.00078100030929246155
 8 0.011157722652953846
 9 0.00091895004483301412
 10 4.1174690068240373e-07
 11 -0.00013796778715281162
 12 -0.0019784624366064162
 13 -0.00016300097808332671
 14 6.1742338245251985e-06
 15 -9.1619596728542953e-06
 16 -8.7842178091793781e-06
 17 8.396947120098201e-05
 18 6.8155005352663615e-06
 19 -1.6052003555927844e-06
 20 1.3209918159021313e-07
 21 -3.7364969489861018e-07
 22 0.00098544643845592007
 23 0.014793286865035471
 24 0.0012615180555266502
 25 2.0013472976789195e-06
 26 3.7068556764926431e-05
 27 0.000555576798126411
 28 4.7392067536853432e-05
 29 5.7127278798327682e-07
 30 -4.6028178616046711e-06
 31 -5.983498647893313e-05
 32 -5.2567800068808574e-06
 33 -1.5471162547047258e-06
 34 -9.5979448411907953e-08
 35 -1.1715080291212876e-06
 36 -5.2460560397914006e-06
 37 -4.4884489494847192e-07
 38 2.029005612329043e-08
 39 -1.7611951798737371e-05
 40 0.00014998580861719856
 41 -6.2836511300234796e-05
 42 7.0092544531239346e-05
 43 7.3782553584206842e-05
 44 4.3053346361883892e-05
 45 -0.00036672818725870998
 46 0.00015997783415454804
 47 -9.1043564268765992e-05
 48 1.1209596940681106e-05
 49 -2.5275845932484181e-05
 50 0.00021514600243183887
 51 -9.4210688228696724e-05
 52 5.2920664701204466e-05
 53 -8.2517158778325458e-05
Sym= A
Ene= -49.559775388846887
Spin= Alpha
Occup= 2
 1 -1.6596792649638631e-07
 2 4.121728078323619e-07
 3 0.00022661037534274018
 4 0.024366896862625022
 5 -0.29600728973451962
 6 -3.6400667715758572e-07
 7 8.5606541602514983e-06
 8 0.00092091604601694311
 9 -0.011187339426717504
 10 -1.0073063115766434e-08
 11 -1.5106949249234995e-06
 12 -0.00016338099026622996
 13 0.0019854336361022551
 14 2.9776290480464211e-07
 15 4.2640719846555827e-08
 16 1.7778248096514967e-07
 17 7.0004181176501726e-06
 18 -8.3807253326202171e-05
 19 1.0923697063362324e-05
 20 3.3741182488434875e-08
 21 -8.6336121236417988e-08
 22 3.4673307787725463e-07
 23 0.0010810990058081336
 24 -0.013580813728567941
 25 1.532124352090265e-07
 26 1.1098197172854865e-08
 27 4.0568303804972467e-05
 28 -0.00050979143989714139
 29 4.7770839760625708e-09
 30 3.0570894807035743e-08
 31 -3.9955616974150662e-06
 32 5.2002135539603732e-05
 33 -7.6499949292464241e-08
 34 1.1406747558795026e-09
 35 -1.4116811342598814e-07
 36 -3.9376424923431791e-07
 37 4.9547310194363983e-06
 38 -1.2792288684461907e-07
 39 -3.9456332036975757e-05
 40 0.00033613666681640028
 41 -0.00015746149498140655
 42 -6.0829408660063712e-05
 43 4.5620528710992596e-05
 44 4.4013501781316173e-06
 45 -3.7495776694249632e-05
 46 1.5928974771428462e-05
 47 -1.1354915836025445e-05
 48 -0.00010051321793138417
 49 3.5090382125968344e-05
 50 -0.00029877964807716034
 51 0.00014171194191041239
 52 7.4772694244903056e-05
 53 2.5243720136412052e-05
Sym= A
Ene= -49.558736957565031
Spin= Alpha
Occup= 2
 1 0.00024476943629444246
 2 -0.00059817738855514376
 3 0.084651810593507515
 4 -0.005900249192831883
 5 -0.00042109856388921691
 6 -1.4356956805886407e-05
 7 0.0032274517550166825
 8 -0.00022492011302828433
 9 -1.6050100925416489e-05
 10 -0.00040736228464726087
 11 -0.00098397584037802411
 12 6.8118662781145871e-05
 13 4.8136099167450205e-06
 14 3.4540923753025066e-05
 15 5.6570936101070158e-06
 16 5.5093711339904741e-06
 17 -2.2781417162409228e-06
 18 -1.6001718152439144e-07
 19 1.3260672181635287e-08
 20 -0.00075815471444399369
 21 0.0018840944723785287
 22 0.28433557754069783
 23 -0.018635283616077358
 24 -0.0014717645370246324
 25 -0.0012932493380938494
 26 0.010766709473921688
 27 -0.00070561002913248317
 28 -5.572468920877404e-05
 29 0.00054295299911056335
 30 -0.0023107058932867073
 31 0.00015130238310123492
 32 1.1893273957002453e-05
 33 0.00046755082074455636
 34 0.0006123200748802594
 35 0.00061299608747694104
 36 1.1559029935505413e-05
 37 8.2044291211399182e-07
 38 -5.1988520832387909e-08
 39 2.6744393118893148e-05
 40 -0.00023391888850406362
 41 -0.00018320792759051688
 42 6.6625123753427475e-05
 43 -9.7290746007444579e-05
 44 2.7010514642342577e-05
 45 -0.00023735864173884792
 46 -0.00019542403638419788
 47 -9.9722425332320977e-05
 48 3.1047106258433721e-06
 49 2.6788492130358707e-05
 50 -0.00023447870402327391
 51 -0.00018200052153276688
 52 7.0596425542346003e-05
 53 9.6948501616288106e-05
Sym= A
Ene= -49.558678902263161
Spin= Alpha
Occup= 2
 1 -0.00074598594572921077
 2 0.0018604855137204013
 3 -0.28426087188310561
 4 0.019781168737864854
 5 0.001410521859640181
 6 -0.0015564044512674428
 7 -0.010749483834006335
 8 0.00074811617293306745
 9 5.3344384637971738e-05
 10 0.00038162010324686976
 11 0.0021159964077194339
 12 -0.0001478623075690327
 13 -1.0577358500132667e-05
 14 0.00058208585606050437
 15 0.00073617318400163046
 16 0.00073696828781964405
 17 1.215376171233095e-05
 18 8.4040149610195445e-07
 19 -6.5554877841790248e-08
 20 -0.00020317706803041008
 21 0.00051699883484028237
 22 0.084682320176564657
 23 -0.0055679031192480497
 24 -0.0004362983555995993
 25 -0.00086320387970453404
 26 0.0031803057210057981
 27 -0.00020898878802102814
 28 -1.6395787720719858e-05
 29 -0.00013198436431051765
 30 -0.00033445723480366433
 31 2.0546574350003883e-05
 32 1.8748494378484518e-06
 33 0.00034723476709102712
 34 0.00040733728458219404
 35 0.0004076324620892474
 36 4.8235416149048515e-06
 37 3.3518920226760316e-07
 38 -2.197040376010416e-08
 39 4.9544431061860603e-05
 40 -0.00043377232601261905
 41 0.00010694825960465007
 42 9.2443825562955125e-05
 43 -0.00018241157814335261
 44 4.9682994457130985e-05
 45 -0.00043528785513970473
 46 8.7371980346047818e-05
 47 -0.0002138576362292416
 48 3.7410324430290006e-06
 49 4.9518959045778112e-05
 50 -0.00043334763313619283
 51 0.00010907969125378302
 52 9.9435327429056266e-05
 53 0.00017723371974655926
Sym= A
Ene= -20.179954106926047
Spin= Alpha
Occup= 2
 1 0.00016703719773595495
 2 -0.00030002514434965732
 3 -5.6442368391059966e-05
 4 -7.0223963763542439e-06
 5 9.764081670735652e-07
 6 -0.0049572743857704453
 7 0.00033938664555353051
 8 4.2210734813030997e-05
 9 -5.8698473053504346e-06
 10 -0.0046334729494614483
 11 -0.0041919426438363607
 12 -0.00055251105893228234
 13 7.5818062039717803e-05
 14 0.0024369469445602457
 15 0.002495079508553111
 16 0.0024611327939817688
 17 -2.7358857066303969e-05
 18 2.3348969470671963e-06
 19 1.340444017433139e-07
 20 0.00016710279569591056
 21 -0.00030019661217460682
 22 5.4984989246463893e-05
 23 -1.4632963908108767e-05
 24 4.3210361437612953e-07
 25 -0.0049586489434775352
 26 -0.00033062252101641353
 27 8.7975473096969244e-05
 28 -2.597556778516699e-06
 29 -0.004637735559114892
 30 0.0040811512790791763
 31 -0.0011140206967472381
 32 3.3473060229919897e-05
 33 0.0024450143689493499
 34 0.0024880387115544834
 35 0.002462090615236028
 36 3.5004204945247634e-05
 37 -1.8806975421784644e-06
 38 9.3037436585292376e-11
 39 0.67119131993908754
 40 0.017321607158141104
 41 -5.7576987798211844e-05
 42 -0.0009513909791787745
 43 0.0018082061985404865
 44 0.33132609894939363
 45 0.0095231702862527239
 46 0.00010150212793754826
 47 0.0014606075066630349
 48 -3.1119889706343577e-05
 49 0.65424548665458249
 50 0.016930658742927641
 51 -7.6939766755272139e-05
 52 -0.001005433925899751
 53 -0.0017441503696965803
Sym= A
Ene= -20.179500758389871
Spin= Alpha
Occup= 2
 1 2.2515617847256006e-06
 2 -3.9938256402610992e-06
 3 -9.8658111952085858e-07
 4 -6.7168081051546149e-07
 5 -4.0629523033643597e-05
 6 -6.7511447064202144e-05
 7 5.9319434876232941e-06
 8 4.037182447230562e-06
 9 0.00024422861126118255
 10 -6.0257307678349753e-05
 11 -7.2518856693164893e-05
 12 -5.1273700730448481e-05
 13 -0.0031308573162045559
 14 3.2016135119505211e-05
 15 3.1688037759502047e-05
 16 3.696484946365417e-05
 17 -2.4217685708391843e-06
 18 -0.00012248786782925158
 19 -5.4217021684575711e-05
 20 2.2771530748815256e-06
 21 -4.1109270312370322e-06
 22 5.1594357010089674e-07
 23 -7.8180459486681605e-07
 24 -4.0628788078219854e-05
 25 -6.7365613282485034e-05
 26 -3.1019159513216314e-06
 27 4.6996679168990536e-06
 28 0.00024422388756802755
 29 -6.4148215491673669e-05
 30 3.8180011916963588e-05
 31 -6.0328365309961245e-05
 32 -0.0031296290471409488
 33 3.4336220828320336e-05
 34 3.1184266558689528e-05
 35 3.491878166872622e-05
 36 1.652959495009124e-06
 37 0.0001138301846475257
 38 -7.0413410045789374e-05
 39 -0.69642695545344402
 40 -0.015978735133649474
 41 3.8912888210860516e-05
 42 0.00061640984809500227
 43 -0.0010008828091676745
 44 0.0089132846204011563
 45 0.0002305713040446532
 46 2.8123228458925791e-06
 47 2.9606027585484509e-05
 48 0.00012057796883236554
 49 0.7099355995133162
 50 0.016339158413077193
 51 -5.113776645145447e-05
 52 -0.00067964750111116875
 53 -0.0010153634520204964
Sym= A
Ene= -20.179138946906111
Spin= Alpha
Occup= 2
 1 4.7169613483970616e-05
 2 -8.4751679778624194e-05
 3 -1.3096167228206759e-05
 4 3.9938553750457973e-05
 5 -4.9936265703886197e-07
 6 -0.0013990486583252575
 7 7.8755003900542406e-05
 8 -0.0002400823768870301
 9 3.0020100751330744e-06
 10 -0.0013091456477611124
 11 -0.00096496031761950476
 12 0.0030758764612543598
 13 -3.9103167827354026e-05
 14 0.00070192442682297392
 15 0.00063345764273532929
 16 0.00075136148725892091
 17 0.00010948620281409262
 18 -1.2211801778695054e-06
 19 2.3023251701890518e-06
 20 4.7268366351133541e-05
 21 -8.5179335370011688e-05
 22 1.8475429137351565e-05
 23 3.7827532440132012e-05
 24 -6.4625265770240944e-07
 25 -0.0013988238123476041
 26 -0.00011108717477070414
 27 -0.00022738992843648236
 28 3.8847779547093612e-06
 29 -0.0013230916738448818
 30 0.0013867423688825259
 31 0.0029255417300191149
 32 -4.9624481397535819e-05
 33 0.00067468318090960005
 34 0.00066000698143422163
 35 0.00075165988396822697
 36 -0.00011683752610681643
 37 2.2408569707723162e-06
 38 3.1895729016157588e-06
 39 -0.23088323862396742
 40 -0.004765220393976935
 41 -1.3142956312188763e-06
 42 -2.2393594248781612e-05
 43 -0.00017182643425127766
 44 0.93752555640223934
 45 0.022093607942738614
 46 0.00013167412011669795
 47 0.0018521593796947883
 48 -3.8186038978093482e-05
 49 -0.23826506619846036
 50 -0.0049346269794323079
 51 8.5603874635895582e-07
 52 -8.5148992941872525e-06
 53 0.00018294858368054508
Sym= A
Ene= -7.4392472639881726
Spin= Alpha
Occup= 2
 1 0.10874994260944532
 2 -0.33085766208607698
 3 -0.0011723548336330877
 4 7.9014889024218269e-05
 5 5.6230856226346142e-06
 6 1.1645300954330109
 7 0.0054854086738057471
 8 -0.00036944164867692151
 9 -2.629377785595796e-05
 10 0.026270256969455615
 11 0.007308088859294749
 12 -0.00050331250203319519
 13 -3.5555299699347412e-05
 14 -0.19991705304802149
 15 -0.19953841292697733
 16 -0.19953610341338321
 17 3.0076083046852149e-05
 18 1.8925856691974625e-06
 19 -2.5198970529454031e-07
 20 -0.11835575371391241
 21 0.36007959250224547
 22 -0.0012787687256315189
 23 8.8745853097706184e-05
 24 6.1396627330268434e-06
 25 -1.2672072225535438
 26 0.0059886726412100291
 27 -0.00041602454849690699
 28 -2.8731034631431535e-05
 29 -0.028235227923355512
 30 0.007539444542418494
 31 -0.00050792873527549082
 32 -3.6834994525887669e-05
 33 0.21751108272340333
 34 0.21708937549166935
 35 0.21708688409507731
 36 -3.3647558798764515e-05
 37 -2.5041678980753206e-06
 38 2.9473139638444944e-07
 39 -2.7569482909420412e-05
 40 0.00025923978305774601
 41 0.0026017191967294137
 42 -0.00021375208111431204
 43 5.0750593288923049e-05
 44 -2.7068328339048237e-05
 45 0.0002749278060311715
 46 0.0026114535101813192
 47 -0.00010583381446601101
 48 -1.3542429224237989e-05
 49 -2.7441704808203137e-05
 50 0.00026379274022626467
 51 0.0026006982399559759
 52 -0.00021660755356863536
 53 -7.4109928998416122e-05
Sym= A
Ene= -7.4388674046654115
Spin= Alpha
Occup= 2
 1 0.11842764461296892
 2 -0.360270378448384
 3 -0.0013088755210132975
 4 8.8215460806535706e-05
 5 6.2765628597224888e-06
 6 1.2659396263035765
 7 0.0061888286767582826
 8 -0.00041678854949609947
 9 -2.9659863366269084e-05
 10 0.024341157921822919
 11 0.0029992234450318873
 12 -0.00021274482018687535
 13 -1.5297539336837794e-05
 14 -0.21693089152602221
 15 -0.21640589881770594
 16 -0.21640277726625556
 17 4.1703852632968234e-05
 18 2.6640773758892768e-06
 19 -3.1853472297279527e-07
 20 0.10882790539696321
 21 -0.33106456046701815
 22 0.001205387942327805
 23 -8.3667171028643176e-05
 24 -5.784223443651099e-06
 25 1.1631528978829173
 26 -0.0057042585113889028
 27 0.00039636868545048139
 28 2.7346872737388758e-05
 29 0.022043076493540068
 30 -0.0023785653744554046
 31 0.00014921416605136173
 32 1.2592588858735e-05
 33 -0.19928724058606584
 34 -0.19879603084782921
 35 -0.19879319890243108
 36 3.9268904802628767e-05
 37 2.8583882208660993e-06
 38 -3.0774905668407673e-07
 39 0.00064711079233742419
 40 -0.0062053101231947325
 41 0.0001578478464337649
 42 0.00080716802482371983
 43 -0.0014938428012434251
 44 0.00064616004737820391
 45 -0.0062154954851903433
 46 -3.711783815852451e-06
 47 -0.0017007186041511542
 48 3.3818761836341598e-05
 49 0.00064728428535944422
 50 -0.0062041115186330809
 51 0.00017674959527530146
 52 0.00086541740215418414
 53 0.0014593958616440422
Sym= A
Ene= -5.356304256973826
Spin= Alpha
Occup= 2
 1 6.5727679083859591e-06
 2 -1.9774206007709193e-05
 3 0.0054249301662127715
 4 0.076866780566234472
 5 -0.0077636486382517177
 6 5.6398562108847449e-05
 7 -0.026269555742262592
 8 -0.37222012220380046
 9 0.037594679066062335
 10 -2.6252640891313644e-05
 11 -0.0025564736062569601
 12 -0.035966857467246108
 13 0.0036361313892228947
 14 -0.00054972540868784034
 15 0.00076618988578564483
 16 -0.00023486210345892116
 17 -0.00449727627606019
 18 0.00045980228974122926
 19 1.5267793734680797e-06
 20 -6.9431914725476435e-06
 21 2.0942694801792208e-05
 22 -0.005693409829562574
 23 -0.087149533463371093
 24 0.0089278078165713932
 25 -6.3883658727400546e-05
 26 0.027570041286769049
 27 0.42201594182549979
 28 -0.043232320902456031
 29 1.7237150865341132e-05
 30 0.002642441584022927
 31 0.040601314347520637
 32 -0.0041584407250991294
 33 -0.00058709157980005094
 34 0.00035115842956137677
 35 0.00026038897142335936
 36 -0.0051448952692744899
 37 0.00052927670936128409
 38 -2.4164645577883965e-05
 39 3.181234704887587e-05
 40 -0.00035662504428557142
 41 -0.0023191948179131011
 42 5.9097654111592155e-05
 43 -9.4748426029370861e-05
 44 -5.2402752515630806e-05
 45 0.00062944833035031981
 46 0.0040545730748924686
 47 -0.00020655114726443081
 48 -4.2492655657814095e-06
 49 2.269385635494882e-05
 50 -0.00026007312714658665
 51 -0.0017464559714096639
 52 2.7715619345346057e-06
 53 0.00011580890856902436
Sym= A
Ene= -5.3562985873316782
Spin= Alpha
Occup= 2
 1 -3.3107783365871333e-07
 2 9.7664167837037097e-07
 3 0.00088573494479408466
 4 0.0078227304973818683
 5 0.07675710994520997
 6 -1.4196415273559932e-06
 7 -0.0042891285746482462
 8 -0.037880847975516593
 9 -0.37168868410357303
 10 4.4389173398926366e-06
 11 -0.0004107924188377595
 12 -0.0036593654712109023
 13 -0.035935619084655882
 14 -9.1138656699204612e-05
 15 6.3173752259820394e-05
 16 2.7210142445961705e-05
 17 -0.0004583739857412145
 18 -0.0045507496742046311
 19 4.2859081594916225e-05
 20 3.7854381687460215e-07
 21 -1.1195831463524389e-06
 22 -0.0010439607063933742
 23 -0.0087885598615313476
 24 -0.087597653299048034
 25 2.319329858366366e-06
 26 0.005055275901853706
 27 0.0425580203119705
 28 0.42418575266284453
 29 -3.0370856619937209e-06
 30 0.00048888289070026869
 31 0.0040952610157438856
 32 0.040812224975147367
 33 -0.00010615355586717149
 34 5.1675868449452816e-05
 35 5.4566631302158179e-05
 36 -0.00051435912642234225
 37 -0.0051511434424925031
 38 0.00066373466334896899
 39 -4.8184376533335949e-05
 40 0.00053868230775668262
 41 0.0033497868898378982
 42 -0.00034959489967923129
 43 -4.7848023614414311e-06
 44 -3.881708298268234e-06
 45 4.7250885699727593e-05
 46 0.0003297195343646733
 47 -2.0845951996145961e-05
 48 -0.00018569765042981319
 49 5.1564481176951246e-05
 50 -0.00058731085843077748
 51 -0.0036775422414551968
 52 0.00035693850093449305
 53 3.7997898034045079e-05
Sym= A
Ene= -5.356042944631529
Spin= Alpha
Occup= 2
 1 -3.3834722719130568e-06
 2 1.0454198036641402e-05
 3 -0.0059448092419126727
 4 -0.086511892363031515
 5 0.013864308251380813
 6 -4.1971315436058555e-05
 7 0.028788911202661617
 8 0.41894671334294387
 9 -0.067139865292263914
 10 -8.5105769063568907e-06
 11 0.0026646409251268499
 12 0.038983618518808549
 13 -0.0062535866061549424
 14 0.00060854405379610064
 15 -0.00085681422339584719
 16 0.00027344006092180001
 17 0.0050600402353384727
 18 -0.00082106958297300831
 19 1.113239814700322e-06
 20 -2.6872308070123137e-06
 21 8.3911371812322633e-06
 22 -0.0050818201331210289
 23 -0.076344299832723367
 24 0.012083164904784624
 25 -3.7640674116490065e-05
 26 0.024609304602220824
 27 0.36971092308892994
 28 -0.058514842008283427
 29 -1.6060190127493117e-05
 30 0.002298165802776276
 31 0.034244019465349045
 32 -0.005420568541842221
 33 -0.00051823656956084016
 34 0.00031185885403071771
 35 0.0002316314321306189
 36 -0.0045050042940217661
 37 0.00071406047258868203
 38 -5.3214280190603259e-05
 39 0.00053286821469704024
 40 -0.0060568383232762202
 41 4.53616417035352e-05
 42 -0.0015441956190396179
 43 -0.0016830666862055798
 44 -0.00085998368362690371
 45 0.0098051190742690659
 46 -0.00017031488401731733
 47 0.0012026082467889085
 48 0.00035129102350104925
 49 0.00032556408078523888
 50 -0.0036991594652190101
 51 -3.3256062751572813e-05
 52 -0.0019368467509556962
 53 0.0016879090604263538
Sym= A
Ene= -5.3560395190946561
Spin= Alpha
Occup= 2
 1 1.3400126195260743e-07
 2 -3.4966720034325416e-07
 3 -0.0013411300565764116
 4 -0.013700101257275494
 5 -0.086972693891148742
 6 -6.6101094425380273e-07
 7 0.0064946694472124275
 8 0.066344796646324269
 9 0.4211776234917971
 10 -3.2502030950418071e-06
 11 0.00060167019080852176
 12 0.0061721834069863903
 13 0.03922151948354137
 14 0.00013762545347457421
 15 -0.00011945229365968093
 16 -1.6205622056712708e-05
 17 0.00080203770890696028
 18 0.0051543640629963181
 19 -4.9049547178402093e-05
 20 1.7816453642859239e-07
 21 -4.9049804811548322e-07
 22 -0.0012121321187945407
 23 -0.01214815518762895
 24 -0.076218296365869992
 25 1.7027625361940944e-07
 26 0.0058699196061095917
 27 0.058829600139368901
 28 0.36910037033096482
 29 -2.2590681546236572e-06
 30 0.00054596645778397538
 31 0.0054502844262262103
 32 0.034199210365097793
 33 -0.00012336595377593877
 34 6.3392269658469943e-05
 35 6.126656382752798e-05
 36 -0.00071294480158846994
 37 -0.0044799765111744978
 38 0.00057937509015206108
 39 -0.00068972876963832759
 40 0.0078358603669897026
 41 -0.00034531259032301325
 42 -0.0019021409639946682
 43 3.7742873188185615e-05
 44 -0.00011927542785464921
 45 0.0013600034438238152
 46 -3.8141906917132823e-05
 47 0.00011276958939685538
 48 -0.0027061526222023312
 49 0.00080860037289472706
 50 -0.0091809321710377093
 51 0.00034853623164616653
 52 0.0014284348443178558
 53 0.00043363274660451138
Sym= A
Ene= -5.3543456468403532
Spin= Alpha
Occup= 2