[Molden Format]
[Title]
generated by GANSU
[Atoms] (Angs)
N 1 7 -0.041 0.637 0
N 2 7 0.041 -0.637 0
C 3 6 1.289 1.277 0
C 4 6 -1.289 -1.277 0
C 5 6 1.294 2.669 0
C 6 6 -1.294 -2.669 0
C 7 6 2.495 0.577 0
C 8 6 -2.495 -0.577 0
C 9 6 2.495 3.36 0
C 10 6 -2.495 -3.36 0
C 11 6 3.691 1.273 0
C 12 6 -3.691 -1.273 0
C 13 6 3.694 2.662 0
C 14 6 -3.694 -2.662 0
H 15 1 0.349 3.198 0
H 16 1 -0.349 -3.198 0
H 17 1 2.481 -0.505 0
H 18 1 -2.481 0.505 0
H 19 1 2.497 4.442 0
H 20 1 -2.497 -4.442 0
H 21 1 4.628 0.731 0
H 22 1 -4.628 -0.731 0
H 23 1 4.633 3.2 0
H 24 1 -4.633 -3.2 0
[GTO]
1 0
 s 3 1.00
    18.0523 0.535328
    4.88566 0.444635
    99.1062 0.154329
 s 3 1.00
    3.78046 -0.0999672
    0.878497 0.399513
    0.285714 0.700115
 p 3 1.00
    3.78046 0.155916
    0.878497 0.607684
    0.285714 0.391957

2 0
 s 3 1.00
    99.1062 0.154329
    4.88566 0.444635
    18.0523 0.535328
 s 3 1.00
    3.78046 -0.0999672
    0.878497 0.399513
    0.285714 0.700115
 p 3 1.00
    3.78046 0.155916
    0.878497 0.607684
    0.285714 0.391957

3 0
 s 3 1.00
    3.53051 0.444635
    13.0451 0.535328
    71.6168 0.154329
 s 3 1.00
    2.94125 -0.0999672
    0.683483 0.399513
    0.22229 0.700115
 p 3 1.00
    2.94125 0.155916
    0.683483 0.607684
    0.22229 0.391957

4 0
 s 3 1.00
    71.6168 0.154329
    13.0451 0.535328
    3.53051 0.444635
 s 3 1.00
    0.22229 0.700115
    0.683483 0.399513
    2.94125 -0.0999672
 p 3 1.00
    2.94125 0.155916
    0.22229 0.391957
    0.683483 0.607684

5 0
 s 3 1.00
    3.53051 0.444635
    13.0451 0.535328
    71.6168 0.154329
 s 3 1.00
    0.22229 0.700115
    0.683483 0.399513
    2.94125 -0.0999672
 p 3 1.00
    2.94125 0.155916
    0.683483 0.607684
    0.22229 0.391957

6 0
 s 3 1.00
    3.53051 0.444635
    13.0451 0.535328
    71.6168 0.154329
 s 3 1.00
    2.94125 -0.0999672
    0.683483 0.399513
    0.22229 0.700115
 p 3 1.00
    2.94125 0.155916
    0.683483 0.607684
    0.22229 0.391957

7 0
 s 3 1.00
    3.53051 0.444635
    13.0451 0.535328
    71.6168 0.154329
 s 3 1.00
    0.22229 0.700115
    0.683483 0.399513
    2.94125 -0.0999672
 p 3 1.00
    0.22229 0.391957
    2.94125 0.155916
    0.683483 0.607684

8 0
 s 3 1.00
    3.53051 0.444635
    13.0451 0.535328
    71.6168 0.154329
 s 3 1.00
    0.22229 0.700115
    0.683483 0.399513
    2.94125 -0.0999672
 p 3 1.00
    2.94125 0.155916
    0.683483 0.607684
    0.22229 0.391957

9 0
 s 3 1.00
    3.53051 0.444635
    13.0451 0.535328
    71.6168 0.154329
 s 3 1.00
    0.22229 0.700115
    2.94125 -0.0999672
    0.683483 0.399513
 p 3 1.00
    2.94125 0.155916
    0.683483 0.607684
    0.22229 0.391957

10 0
 s 3 1.00
    3.53051 0.444635
    13.0451 0.535328
    71.6168 0.154329
 s 3 1.00
    0.22229 0.700115
    0.683483 0.399513
    2.94125 -0.0999672
 p 3 1.00
    0.22229 0.391957
    0.683483 0.607684
    2.94125 0.155916

11 0
 s 3 1.00
    71.6168 0.154329
    3.53051 0.444635
    13.0451 0.535328
 s 3 1.00
    0.22229 0.700115
    0.683483 0.399513
    2.94125 -0.0999672
 p 3 1.00
    2.94125 0.155916
    0.683483 0.607684
    0.22229 0.391957

12 0
 s 3 1.00
    71.6168 0.154329
    13.0451 0.535328
    3.53051 0.444635
 s 3 1.00
    0.683483 0.399513
    0.22229 0.700115
    2.94125 -0.0999672
 p 3 1.00
    0.22229 0.391957
    2.94125 0.155916
    0.683483 0.607684

13 0
 s 3 1.00
    71.6168 0.154329
    13.0451 0.535328
    3.53051 0.444635
 s 3 1.00
    0.22229 0.700115
    2.94125 -0.0999672
    0.683483 0.399513
 p 3 1.00
    0.683483 0.607684
    2.94125 0.155916
    0.22229 0.391957

14 0
 s 3 1.00
    3.53051 0.444635
    13.0451 0.535328
    71.6168 0.154329
 s 3 1.00
    0.22229 0.700115
    0.683483 0.399513
    2.94125 -0.0999672
 p 3 1.00
    2.94125 0.155916
    0.683483 0.607684
    0.22229 0.391957

15 0
 s 3 1.00
    3.42525 0.154329
    0.623914 0.535328
    0.168855 0.444635

16 0
 s 3 1.00
    0.168855 0.444635
    0.623914 0.535328
    3.42525 0.154329

17 0
 s 3 1.00
    3.42525 0.154329
    0.623914 0.535328
    0.168855 0.444635

18 0
 s 3 1.00
    3.42525 0.154329
    0.623914 0.535328
    0.168855 0.444635

19 0
 s 3 1.00
    0.168855 0.444635
    0.623914 0.535328
    3.42525 0.154329

20 0
 s 3 1.00
    0.623914 0.535328
    3.42525 0.154329
    0.168855 0.444635

21 0
 s 3 1.00
    0.168855 0.444635
    0.623914 0.535328
    3.42525 0.154329

22 0
 s 3 1.00
    0.168855 0.444635
    0.623914 0.535328
    3.42525 0.154329

23 0
 s 3 1.00
    0.623914 0.535328
    3.42525 0.154329
    0.168855 0.444635

24 0
 s 3 1.00
    0.168855 0.444635
    3.42525 0.154329
    0.623914 0.535328

[MO]
Sym= A
Ene= -15.3907
Spin= Alpha
Occup= 2
 1 0.70242286673580145
 2 0.024719217688435054
 3 0.0023666550929415386
 4 -0.0048645918394064624
 5 5.5080360776025925e-17
 6 -0.70242286048836877
 7 -0.024719217550105681
 8 0.0023666550717346101
 9 -0.0048645918434308405
 10 1.093871264947495e-16
 11 0.00032644152561217901
 12 -0.0036842048506649204
 13 0.0023563196108222564
 14 0.0011689407471949772
 15 -1.1637224061089728e-16
 16 -0.0003264415221627898
 17 0.0036842048177002304
 18 0.0023563195891612709
 19 0.0011689407334869008
 20 7.0902503125125696e-17
 21 -1.1001814775242133e-05
 22 0.00027211691164391594
 23 -0.00018056187870206172
 24 -7.1879914986600763e-05
 25 -3.3185632171935935e-17
 26 1.1001814796567089e-05
 27 -0.0002721169107691105
 28 -0.00018056187733738946
 29 -7.1879915450673987e-05
 30 -1.0478286642401318e-17
 31 -1.2535318459737897e-05
 32 5.8094142047377187e-05
 33 -0.00032990111106001932
 34 -0.00014484566205631016
 35 -9.506572444814946e-18
 36 1.2535318383395319e-05
 37 -5.8094139485558374e-05
 38 -0.00032990111075978726
 39 -0.0001448456606287056
 40 -1.087737138209828e-17
 41 3.1671634330076789e-06
 42 -7.0681703639389332e-06
 43 -8.8587306894885587e-06
 44 3.1207009222294912e-05
 45 -2.8164368991773283e-17
 46 -3.1671633945688088e-06
 47 7.0681701968295513e-06
 48 -8.8587306833788626e-06
 49 3.1207008944565684e-05
 50 -1.97942398287464e-17
 51 -2.9120651321660335e-06
 52 9.2822915791711833e-05
 53 -2.9371530864609474e-05
 54 -5.6539909725875775e-05
 55 -1.6714392032994014e-17
 56 2.9120651898697668e-06
 57 -9.2822916253132339e-05
 58 -2.9371531263252398e-05
 59 -5.6539909629178819e-05
 60 -5.6958621703507747e-17
 61 1.7787109848929985e-06
 62 3.3506830907031697e-06
 63 2.0970921370718799e-05
 64 1.0328095667824777e-05
 65 -4.5441908005541468e-18
 66 -1.7787109687384403e-06
 67 -3.350683030023254e-06
 68 2.0970921231275655e-05
 69 1.0328095597290921e-05
 70 1.6420123230484323e-17
 71 -0.00018494019392353497
 72 0.00018494019211319837
 73 0.00029142373081382858
 74 -0.00029142373465686905
 75 -8.8775211783964636e-06
 76 8.8775211100032558e-06
 77 -2.0855039993925018e-05
 78 2.0855039959501165e-05
 79 -9.61323489303504e-06
 80 9.6132348090362599e-06
Sym= A
Ene= -15.390656801929435
Spin= Alpha
Occup= 2
 1 0.70305323339624637
 2 0.0155670619684595
 3 0.0023864809690916852
 4 0.00045283202628872143
 5 8.1256882296200953e-16
 6 0.70305323963807476
 7 0.015567062188121858
 8 -0.00238648099012196
 9 -0.0004528319830601063
 10 -9.0682662037994086e-16
 11 0.00038821700008441051
 12 -0.0037097238894025567
 13 0.0024375820014925359
 14 0.0015426194154915598
 15 1.2426157632631621e-16
 16 0.00038821700298715713
 17 -0.0037097239221419269
 18 -0.0024375820224314532
 19 -0.0015426194258783121
 20 -2.3772993357849181e-16
 21 2.2465027728012211e-06
 22 9.8433908796499194e-05
 23 -0.00015353213512611132
 24 5.2200552567173084e-05
 25 -2.4265324802280003e-16
 26 2.2465026746146255e-06
 27 9.843391121596573e-05
 28 0.00015353213672971051
 29 -5.2200551928368102e-05
 30 2.7645654291713573e-16
 31 -8.5837013320409945e-06
 32 0.00028836557361761094
 33 -3.3800930113455502e-05
 34 -0.00016059324163414899
 35 -2.7267792264842576e-16
 36 -8.5837014434943758e-06
 37 0.00028836557413436468
 38 3.3800933044701026e-05
 39 0.00016059324292131208
 40 2.5183231015262853e-16
 41 4.2478922864562854e-06
 42 -1.8813465666587224e-05
 43 -6.8520131946830931e-07
 44 3.1241891711529724e-05
 45 2.5496455046300257e-18
 46 4.2478923143757924e-06
 47 -1.8813465730138819e-05
 48 6.8520139747361986e-07
 49 -3.1241891989435379e-05
 50 3.6450174800158772e-17
 51 6.4817869853761936e-06
 52 -5.1932570720576027e-05
 53 4.4882085163155602e-05
 54 -1.0873829127579747e-05
 55 2.9878790502503275e-19
 56 6.4817869591623535e-06
 57 -5.1932569896866437e-05
 58 -4.488208490203982e-05
 59 1.087382963021067e-05
 60 5.4853026583116748e-17
 61 1.818311014778278e-06
 62 6.8428694260849049e-06
 63 1.5681690465117401e-05
 64 7.9290230492502778e-06
 65 2.965285731892521e-16
 66 1.8183110300712749e-06
 67 6.8428694554355587e-06
 68 -1.5681690650965266e-05
 69 -7.9290231405036715e-06
 70 -2.964284955143129e-16
 71 -0.00020371577652663481
 72 -0.00020371577816979784
 73 -0.00043246664764581627
 74 -0.00043246664505640234
 75 -7.683240363085854e-06
 76 -7.6832404422837869e-06
 77 -3.8846408139201621e-06
 78 -3.8846409984461677e-06
 79 -9.4559076584932976e-06
 80 -9.455907742915784e-06
Sym= A
Ene= -11.06447442779397
Spin= Alpha
Occup= 2
 1 0.0002839709774658996
 2 -0.0034218932045560514
 3 -0.0019169412369973056
 4 -0.00097838144310953903
 5 -9.7268952629273464e-17
 6 -0.00028397095763478802
 7 0.0034218930286455014
 8 -0.0019169411685502763
 9 -0.00097838140611847257
 10 1.6488034097526124e-16
 11 0.70161125213277908
 12 0.025034447340223843
 13 0.00062882152313121706
 14 0.00055811181065465107
 15 -2.7256718535582707e-16
 16 -0.70161121889704803
 17 -0.025034446160442286
 18 0.00062882148985455959
 19 0.00055811178092758131
 20 -9.7748265224885832e-17
 21 0.0041846439935853416
 22 -0.0049704885402174145
 23 -3.723773950430791e-05
 24 0.0027308453166278029
 25 -8.5564397505752473e-17
 26 -0.0041846437959169704
 27 0.0049704883043589741
 28 -3.7237737360458576e-05
 29 0.0027308451870427103
 30 5.0517842316169167e-17
 31 0.0038746570549383209
 32 -0.0048645070079959239
 33 0.0022868209532346181
 34 -0.0013778134246250837
 35 9.7303265942482324e-17
 36 -0.0038746568748307948
 37 0.0048645067775699054
 38 0.0022868208443801094
 39 -0.0013778133595333253
 40 -4.6054117179592165e-17
 41 -0.00065995152811393191
 42 0.00013900707061253255
 43 -2.5429160739848505e-05
 44 2.0466669216623323e-05
 45 -5.4154386619446366e-17
 46 0.0006599514969251256
 47 -0.00013900706389210387
 48 -2.5429159454287871e-05
 49 2.0466668273790706e-05
 50 -4.6760825454862215e-17
 51 -0.00069659560851852197
 52 0.00013192475279854914
 53 1.2227667550835861e-05
 54 -4.0697770803823675e-05
 55 -1.1345708575291794e-16
 56 0.00069659557510379309
 57 -0.00013192474680262083
 58 1.2227666808998713e-05
 59 -4.069776889435283e-05
 60 -4.9750623687727104e-17
 61 -0.0011089830644752455
 62 -0.00010156752950549186
 63 0.00011237238242777121
 64 6.2003196341973939e-05
 65 6.4182982111118094e-18
 66 0.0011089830117132892
 67 0.00010156752470183092
 68 0.00011237237708376299
 69 6.2003193401108126e-05
 70 8.0050260951511776e-17
 71 2.6656095722368735e-06
 72 -2.6656094316466431e-06
 73 9.5359280574214625e-06
 74 -9.5359282568556816e-06
 75 -5.7516980002347146e-05
 76 5.7516977244546214e-05
 77 -6.0345269082622346e-05
 78 6.0345266208237588e-05
 79 -3.7196015527305327e-05
 80 3.7196013754600514e-05
Sym= A
Ene= -11.064467859989712
Spin= Alpha
Occup= 2
 1 0.00041861778551503196
 2 -0.0037135507576818161
 3 -0.0014449415170321236
 4 -0.00078089141042479368
 5 -1.5313446976999626e-16
 6 0.00041861779896665199
 7 -0.0037135509197765981
 8 0.001444941607837355
 9 0.00078089145677066873
 10 1.4155474589118808e-17
 11 0.7016225464711372
 12 0.024905801538307543
 13 0.00070250128976557234
 14 0.0006275793873781214
 15 3.6784023690249854e-16
 16 0.70162257970633057
 17 0.024905802724184953
 18 -0.00070250131955209704
 19 -0.00062757941381761349
 20 3.0765933127512663e-16
 21 0.004169939240509163
 22 -0.0049792109554983137
 23 -4.5259833030773886e-05
 24 0.0027356170247051226
 25 -1.3522798012979634e-16
 26 0.0041699394385401349
 27 -0.0049792111909579932
 28 4.5259834796216279e-05
 29 -0.0027356171540651938
 30 -2.0830171811383949e-17
 31 0.0038027416541892979
 32 -0.0048643865081343801
 33 0.0022979718334588811
 34 -0.0013741138452709259
 35 -6.418226336427061e-17
 36 0.0038027418381772621
 37 -0.0048643867385512324
 38 -0.0022979719417840494
 39 0.001374113910538384
 40 7.8156637613384591e-18
 41 -0.00065759724476306203
 42 0.00014188188410755361
 43 -2.716833934339382e-05
 44 1.9900161265568386e-05
 45 -3.574236874013593e-17
 46 -0.00065759727591461667
 47 0.00014188189069650869
 48 2.7168340550297321e-05
 49 -1.9900162235457486e-05
 50 9.6532048553596722e-17
 51 -0.00070295999376931561
 52 0.00012663501215295827
 53 1.5672416379331616e-05
 54 -4.0318511229330695e-05
 55 -3.4416282966942933e-17
 56 -0.00070296002653126241
 57 0.00012663501840704059
 58 -1.5672416959787439e-05
 59 4.0318513157281549e-05
 60 1.5991337179083866e-17
 61 -0.0011124100113000263
 62 -0.00010133568637208344
 63 0.00011281538579267347
 64 6.2106735453723236e-05
 65 -9.057804602354762e-17
 66 -0.0011124100634895455
 67 -0.00010133569117393507
 68 -0.00011281539111620414
 69 -6.2106738392376029e-05
 70 -2.5255766277453359e-17
 71 2.9848362196169178e-06
 72 2.9848363466138551e-06
 73 -4.2180074490080505e-06
 74 -4.2180070009296272e-06
 75 -5.8206344731312823e-05
 76 -5.8206347457257293e-05
 77 -6.0690145653286703e-05
 78 -6.0690148513639283e-05
 79 -3.7461936958754966e-05
 80 -3.7461938723200002e-05
Sym= A
Ene= -11.039227934958292
Spin= Alpha
Occup= 2
 1 9.4580928272350513e-06
 2 0.00011065057293991459
 3 9.3809625924187734e-05
 4 -5.8318760329072183e-06
 5 -2.7287847974198967e-16
 6 9.4580945547538412e-06
 7 0.00011065039473988868
 8 -9.3809577851716383e-05
 9 5.8318258265438461e-06
 10 8.6840208166476824e-17
 11 -0.0035749968661595351
 12 -0.0050072845673481033
 13 3.8408198098014313e-05
 14 -0.0027318062132520166
 15 1.1059591615976384e-16
 16 -0.0035749941789004758
 17 -0.005007280817017231
 18 -3.8408172331702919e-05
 19 0.0027318041689011058
 20 -8.1774398065658424e-17
 21 0.69406091672164283
 22 0.025342990792254952
 23 0.00054031560812438199
 24 -0.00049404381071958825
 25 4.7286138708476752e-17
 26 0.69406039687131549
 27 0.025342971811665033
 28 -0.00054031520355788364
 29 0.00049404344113156053
 30 -3.1954379777403982e-17
 31 -0.02690580323666238
 32 -0.00068364893832686046
 33 -5.0963213203206181e-06
 34 -7.921078625541117e-06
 35 -7.0165394232739467e-17
 36 -0.026905783287701136
 37 -0.00068364844051374378
 38 5.0963182589942521e-06
 39 7.9210691291669438e-06
 40 -4.1180728873293631e-17
 41 0.034585643767451227
 42 -0.0031502740880688836
 43 0.0025970796342019709
 44 0.0011740042494177844
 45 4.0131448120297966e-17
 46 0.03458561783079396
 47 -0.003150271726888261
 48 -0.0025970776905174311
 49 -0.001174003369401256
 50 -6.0434340009918358e-17
 51 -0.017621135522931854
 52 0.00014779135988167956
 53 3.2215713381914673e-05
 54 0.00023051014564801076
 55 5.9675224814966548e-17
 56 -0.017621122357383105
 57 0.00014779125314251518
 58 -3.2215688433591752e-05
 59 -0.00023050997381700647
 60 -1.4575611834479562e-16
 61 -0.09083868431020363
 62 -0.0033016874739749368
 63 0.00019774510525757179
 64 -3.2055075626358925e-05
 65 -2.3190151968780865e-16
 66 -0.090838616687331869
 67 -0.0033016850159885754
 68 -0.00019774495749689354
 69 3.2055051450189179e-05
 70 2.9342022048193313e-16
 71 -0.0047512018100103193
 72 -0.0047511982516959955
 73 0.00013589883149498286
 74 0.00013589874570375891
 75 -0.00017982730499638581
 76 -0.00017982717006338224
 77 6.2467482972847232e-05
 78 6.2467436015906943e-05
 79 0.00056458822098524311
 80 0.00056458780096287726
Sym= A
Ene= -11.03922756911992
Spin= Alpha
Occup= 2
 1 2.3061908015244159e-06
 2 -0.00023794321760411616
 3 -6.4194336760233471e-05
 4 6.7030695009786742e-05
 5 -6.4553658599681066e-17
 6 -2.3061837192330653e-06
 7 0.00023794330047415511
 8 -6.4194407015463056e-05
 9 6.7030699376281755e-05
 10 6.8509678240224379e-18
 11 0.0035882012291849324
 12 0.0050073704956865514
 13 -3.4490664867091372e-05
 14 0.0027296518249976739
 15 7.7639701039600783e-17
 16 -0.003588203906396391
 17 -0.0050073742455334636
 18 -3.4490693668731698e-05
 19 0.0027296538708150991
 20 8.5007872050100412e-17
 21 -0.6941111626300619
 22 -0.025343163331196017
 23 -0.00054022492421423006
 24 0.0004934751271843188
 25 7.5616697391287312e-17
 26 0.6941116824044643
 27 0.025343182310271467
 28 -0.00054022532886451383
 29 0.00049347549717084806
 30 -5.6350991420346464e-17
 31 0.026650806883682043
 32 0.0006651703140625612
 33 4.0489615063619283e-06
 34 1.2657026018022058e-05
 35 -2.4290430625456733e-16
 36 -0.026650827038340975
 37 -0.00066517082619516098
 38 4.0489652981361146e-06
 39 1.2657031933793403e-05
 40 7.198918484384958e-18
 41 -0.034619449924286248
 42 0.0031514387620496694
 43 -0.0025959864905932967
 44 -0.0011745552094521022
 45 4.8600092021771811e-17
 46 0.034619475821228207
 47 -0.0031514411205098188
 48 -0.0025959884359165047
 49 -0.0011745560884066503
 50 7.0794736891753875e-17
 51 0.01759468382102683
 52 -0.0001437044275245658
 53 -3.3255510299904159e-05
 54 -0.0002302792093138474
 55 1.8902539538647783e-16
 56 -0.017594697026777753
 57 0.00014370453877765761
 58 -3.3255534406662415e-05
 59 -0.00023027938239630549
 60 -1.293654843253728e-16
 61 0.090519026734321051
 62 0.0032901530454616883
 63 -0.00019746330964029576
 64 3.2200892723811131e-05
 65 9.326812815568785e-17
 66 -0.090519094883718551
 67 -0.0032901555224383685
 68 -0.00019746345782789727
 69 3.2200916694976461e-05
 70 -1.5991998258154465e-16
 71 0.004751085585337031
 72 -0.0047510891434459634
 73 -0.00011467067867928062
 74 0.00011467078049838281
 75 0.00018010483547994428
 76 -0.00018010497013499008
 77 -6.2783841157572698e-05
 78 6.2783887991763737e-05
 79 -0.00056239096061591956
 80 0.00056239138426525392
Sym= A
Ene= -11.039058419280252
Spin= Alpha
Occup= 2
 1 6.9211530061795683e-06
 2 -3.668435277219724e-05
 3 -1.6836887834638815e-05
 4 -1.324825525282809e-05
 5 2.1070070014809875e-16
 6 6.921161684132239e-06
 7 -3.6684385684493392e-05
 8 1.6836913477935329e-05
 9 1.3248279114849715e-05
 10 -3.4508921388960796e-17
 11 0.00089641999190333711
 12 -0.00048178102707122951
 13 -3.3217359221118445e-05
 14 -0.00045246244276361987
 15 6.0606065959581973e-17
 16 0.00089642124905986789
 17 -0.00048178170609713532
 18 3.3217406865833007e-05
 19 0.00045246307815671218
 20 -1.8214168119522587e-17
 21 0.088478144493290806
 22 0.0030909739130071667
 23 -7.4350182151205514e-05
 24 -7.7967211131461239e-05
 25 -3.9305171112558784e-17
 26 0.088478268693798462
 27 0.0030909782517238634
 28 7.4350286918566967e-05
 29 7.796732097175782e-05
 30 -4.4028648985770871e-17
 31 -0.026113369480129083
 32 -0.0010482285597087524
 33 -8.6891524637125808e-05
 34 -0.00013388667958792906
 35 7.9039163568210334e-17
 36 -0.026113405832865946
 37 -0.0010482300188926538
 38 8.6891647353917398e-05
 39 0.00013388686890596253
 40 1.3267059631917547e-16
 41 0.045443325293946991
 42 -0.0040310693689133079
 43 -0.0019961913579874743
 44 0.0015356880933344863
 45 1.9403242550256751e-16
 46 0.045443389220667457
 47 -0.0040310750402403825
 48 0.0019961941681930218
 49 -0.0015356902539122586
 50 3.3749262987795169e-16
 51 0.03817937461459444
 52 -0.0034571030115398207
 53 -4.5135335045151095e-05
 54 -0.0027240566507824582
 55 1.7714382697987638e-16
 56 0.038179428376640567
 57 -0.0034571078781019358
 58 4.5135397407662084e-05
 59 0.0027240604833877122
 60 7.539178935712646e-17
 61 0.69300824340957012
 62 0.024972997096391059
 63 -0.00048931848634286949
 64 -0.00029203663474749227
 65 -3.3021691110967257e-16
 66 0.69300921864825216
 67 0.024973032239629878
 68 0.00048931917499664759
 69 0.00029203704556291128
 70 -9.0256837649994322e-17
 71 -0.00066785123587897316
 72 -0.00066785217300414923
 73 0.00011093220891565496
 74 0.00011093235928280598
 75 -0.00023965519737850793
 76 -0.00023965553454450184
 77 -0.0002092462211516744
 78 -0.00020924651570531852
 79 -0.0047764356360839449
 80 -0.0047764423577380949
Sym= A
Ene= -11.039058381708168
Spin= Alpha
Occup= 2
 1 6.16698347646015e-06
 2 -2.3416653317866881e-05
 3 -1.8230870167806022e-05
 4 -1.6949849467363031e-05
 5 1.2031687224985736e-16
 6 -6.1669737395735058e-06
 7 2.3416601671209228e-05
 8 -1.823084645529837e-05
 9 -1.6949830826711834e-05
 10 1.7823965752413702e-16
 11 0.00089384624197041962
 12 -0.00048196618235540629
 13 -3.3877454145830183e-05
 14 -0.00045119662305362438
 15 1.9434171411309049e-16
 16 -0.00089384497943052147
 17 0.00048196550552431165
 18 -3.3877407350391131e-05
 19 -0.00045119598704182213
 20 -4.2572053535579404e-17
 21 0.088177732667507891
 22 0.0030801910242081731
 23 -7.4519875739302577e-05
 24 -7.7997953692926503e-05
 25 -1.1457050521335016e-16
 26 -0.088177608330315099
 27 -0.0030801866807775094
 28 -7.4519770978817568e-05
 29 -7.7997844095038446e-05
 30 -2.5419550799022715e-16
 31 -0.025826275409332917
 32 -0.0010367107647466414
 33 -8.7203955005582534e-05
 34 -0.00013452905233441934
 35 2.1733224500369814e-16
 36 0.025826238682561255
 37 0.0010367092903687974
 38 -8.7203832747656529e-05
 39 -0.00013452886395537433
 40 -3.5952321068169766e-17
 41 0.045425384350448621
 42 -0.0040298899227652688
 43 -0.0019973704422879962
 44 0.0015352577787884139
 45 4.8368164364736631e-17
 46 -0.045425320410262857
 47 0.0040298842511492031
 48 -0.0019973676326634354
 49 0.0015352556180840693
 50 9.4267260770002028e-17
 51 0.038206632397270332
 52 -0.0034584823807041858
 53 -4.4305684577869995e-05
 54 -0.0027236367471645331
 55 3.6516931623614642e-17
 56 -0.038206578671487912
 57 0.0034584775156764128
 58 -4.4305621104496302e-05
 59 -0.0027236329138968368
 60 2.4061614358437605e-16
 61 0.69305798759061743
 62 0.024974719398225612
 63 -0.00048940957531173196
 64 -0.00029194496583413634
 65 6.1271088226910546e-17
 66 -0.69305701238231399
 67 -0.024974684255942806
 68 -0.00048940888671155161
 69 -0.00029194455487614648
 70 8.0738459998543233e-17
 71 -0.0006653836980858481
 72 0.00066538275944491229
 73 0.00010681345110540377
 74 -0.00010681329512617944
 75 -0.00023958648424936648
 76 0.00023958614704375127
 77 -0.00020932177874527253
 78 0.00020932148430995374
 79 -0.0047767687215146959
 80 0.0047767620000785382
Sym= A
Ene= -11.038407827880549
Spin= Alpha
Occup= 2
 1 -8.1695522273837577e-06
 2 -0.0001628793291322591
 3 -0.00016460469541147542
 4 -4.9754337208754787e-05
 5 -2.2058563768144321e-16
 6 -8.1695431260147937e-06
 7 -0.00016287941017279839
 8 0.00016460470266458326
 9 4.9754304375220285e-05
 10 1.0027911991721361e-16
 11 0.0032847662879466107
 12 0.0054847726859447547
 13 0.0023570139854054012
 14 -0.0011892960700941139
 15 1.8311269753735213e-16
 16 0.0032847673066959968
 17 0.0054847743325086434
 18 -0.0023570147095596378
 19 0.0011892964269908032
 20 6.9986898422568634e-17
 21 -0.031704269222020499
 22 -0.0014488471873553527
 23 -1.6537992858051478e-05
 24 4.0521443836896449e-05
 25 -2.6106137313246486e-17
 26 -0.031704278744716215
 27 -0.0014488476252550904
 28 1.6537997380028022e-05
 29 -4.052145423557316e-05
 30 -1.0472655273133392e-16
 31 -0.69762428547394406
 32 -0.02531237283283215
 33 0.00024177579859915952
 34 -0.0006862955711343828
 35 5.662818615576359e-17
 36 -0.69762449677277472
 37 -0.025312380499402085
 38 -0.00024177587140597132
 39 0.00068629577998601671
 40 -8.3142681663949908e-17
 41 0.0099707241541519814
 42 0.00079625731324483098
 43 -4.5101449619378269e-05
 44 -0.00024173555618870347
 45 4.4078861392229798e-17
 46 0.0099707271869738101
 47 0.00079625755429262989
 48 4.5101463568103257e-05
 49 0.00024173562901775528
 50 4.8347583811270903e-19
 51 -0.063907657068180204
 52 0.0029264035566650623
 53 -0.0023235995603553827
 54 -0.0012558774275387881
 55 1.0382988818083644e-16
 56 -0.063907676432256963
 57 0.0029264044425037078
 58 0.0023236002641615072
 59 0.0012558778082896078
 60 5.7996218814268568e-17
 61 -0.019496493429293462
 62 -0.00051818550662224676
 63 5.6559704546994827e-06
 64 -0.00022855618377845555
 65 -2.2737742158320521e-16
 66 -0.019496499272977447
 67 -0.00051818566136334517
 68 -5.655972253496705e-06
 69 0.00022855625298885424
 70 1.8651962803440708e-16
 71 0.00027983256585682736
 72 0.00027983265591985385
 73 0.0047770996184975378
 74 0.0047771010649455409
 75 -2.4643410785268195e-05
 76 -2.4643418521064208e-05
 77 0.00037558444976865145
 78 0.00037558456354273081
 79 0.00019640644057710224
 80 0.00019640649959772397
Sym= A
Ene= -11.038407404459587
Spin= Alpha
Occup= 2
 1 3.004937135786187e-05
 2 -0.00026755904602369105
 3 -2.3946078081173855e-05
 4 0.00010840019950912258
 5 -1.1148514441778826e-16
 6 -3.0049373832293554e-05
 7 0.00026755899669575261
 8 -2.3946028229179794e-05
 9 0.00010840021457829982
 10 1.5948817923260384e-16
 11 0.0033633634343379244
 12 0.0054361586170826662
 13 0.0023909148083072901
 14 -0.0011785004818446708
 15 3.7433581778843656e-18
 16 -0.0033633624399891293
 17 -0.0054361569560046341
 18 0.0023909140944199173
 19 -0.0011785001215650105
 20 4.0653027625403507e-17
 21 -0.031405367534601124
 22 -0.0014445485008753598
 23 -1.492512617612754e-05
 24 3.429856716115863e-05
 25 2.1202454305443892e-16
 26 0.031405357949166664
 27 0.0014445480626627282
 28 -1.4925121171816338e-05
 29 3.429855490590366e-05
 30 3.7592192094095452e-18
 31 -0.6976413132722491
 32 -0.025312562138992245
 33 0.00024037764928992126
 34 -0.00068956683968254828
 35 5.1648891990708208e-17
 36 0.69764110197651807
 37 0.025312554472383536
 38 0.00024037757607835077
 39 -0.00068956663180966965
 40 2.4031416959448691e-17
 41 0.010022278992405697
 42 0.00079566208363290088
 43 -4.6056035397315336e-05
 44 -0.0002403221004807464
 45 -7.2891843675661373e-17
 46 -0.010022275969398347
 47 -0.00079566184249846381
 48 -4.6056021782346808e-05
 49 -0.00024032202730193269
 50 2.4888136652319233e-17
 51 -0.063932103140654797
 52 0.002924560499089901
 53 -0.0023237342747196993
 54 -0.0012572621342282937
 55 -8.6499132783789687e-17
 56 0.063932083788606653
 57 -0.0029245596126120724
 58 -0.0023237335709492685
 59 -0.0012572617538370891
 60 9.2045491656376146e-17
 61 -0.019257438956130711
 62 -0.00050962700076330036
 63 5.9357255408794274e-06
 64 -0.00022853709754906519
 65 -4.1418294375263555e-17
 66 0.019257433054388928
 67 0.00050962684389027884
 68 5.9357238200025142e-06
 69 -0.0002285370283347174
 70 3.4826824618491393e-17
 71 0.00029711366852782674
 72 -0.00029711358389022426
 73 0.0047757041119235177
 74 -0.0047757026650408763
 75 -2.5595939115211595e-05
 76 2.5595931631506967e-05
 77 0.00037563138821797076
 78 -0.00037563127449183158
 79 0.00019461226310303788
 80 -0.00019461220363915614
Sym= A
Ene= -11.036504670822437
Spin= Alpha
Occup= 2
 1 -3.8899169988852213e-06
 2 4.03386464034097e-05
 3 4.3142425291372785e-05
 4 -5.8762969559444629e-06
 5 -5.1185759213279877e-17
 6 3.8900773123696055e-06
 7 -4.0339906675604517e-05
 8 4.3142771481666231e-05
 9 -5.8762956463997594e-06
 10 8.6271746198037265e-17
 11 -0.00078178973844044851
 12 -0.00052815299671621569
 13 -0.00023264937025953194
 14 0.00023701872887520875
 15 -4.3117218835187142e-17
 16 0.00078180529587914573
 17 0.00052816345491672962
 18 -0.00023265401449672337
 19 0.00023702338736914267
 20 -1.5566074388717087e-16
 21 -0.015663882394252635
 22 -0.001261905654887872
 23 -0.00027101294623431763
 24 -0.0002546079713935703
 25 -5.0628171245804177e-18
 26 0.015664193670795346
 27 0.0012619307577098372
 28 -0.00027101832135335499
 29 -0.00025461305500694702
 30 4.5643032210885347e-17
 31 0.063906079425728388
 32 0.0074526665675876229
 33 0.0022883669872860168
 34 0.0014665414932839432
 35 -5.0701060264831376e-17
 36 -0.063907349851795858
 37 -0.0074528147726838946
 38 0.00228841250250051
 39 0.0014665706577131135
 40 -3.4682339739815925e-17
 41 0.10661419926799527
 42 0.0036112174886431926
 43 -0.00021411948311714397
 44 -8.5849060160254204e-05
 45 -1.3915256310415409e-17
 46 -0.10661632073090563
 47 -0.0036112893458566421
 48 -0.00021412374142626509
 49 -8.5850766475468326e-05
 50 -3.5476771784261867e-17
 51 -0.6893083794582674
 52 -0.026182860807384606
 53 0.00089765322616686474
 54 -0.00035327275734561413
 55 -3.0714358223333412e-17
 56 0.68932209032982983
 57 0.026183381594393401
 58 0.0008976710755133413
 59 -0.00035327978612574758
 60 2.1256165559749166e-17
 61 0.034957748432193764
 62 0.0055590630876732588
 63 0.00025482206887306798
 64 -0.0028963339858029541
 65 1.2398492193664721e-16
 66 -0.034958443776817186
 67 -0.0055591736552852312
 68 0.00025482714014724679
 69 -0.0028963915971224469
 70 1.154093311216077e-17
 71 0.00015332410947975147
 72 -0.00015332720173728614
 73 -0.00051964647405930257
 74 0.00051965680272719229
 75 -0.00067315263322645326
 76 0.00067316602906138763
 77 0.0047528355900547381
 78 -0.0047529301275277547
 79 -0.00030033743870769465
 80 0.00030034341230016602
Sym= A
Ene= -11.036504661718412
Spin= Alpha
Occup= 2
 1 -8.059702307404654e-06
 2 6.3359794168067057e-05
 3 1.7404892859410048e-05
 4 6.5531346882698584e-08
 5 6.2029833388570853e-18
 6 -8.0596249341455956e-06
 7 6.3358991805424585e-05
 8 -1.7404034729971013e-05
 9 -6.5648235465428099e-08
 10 -7.8376653295141978e-18
 11 -0.00078215603374843558
 12 -0.00052578614351606794
 13 -0.00023349124790542942
 14 0.00023420928798635436
 15 8.5541073833198827e-17
 16 -0.00078214048335066154
 17 -0.00052577563820765862
 18 0.00023348662031976667
 19 -0.0002342045734649769
 20 -3.7198729301662486e-17
 21 -0.015649872710146125
 22 -0.0012621136405147667
 23 -0.00027025863744183087
 24 -0.00025559229267359702
 25 1.8710303583595646e-16
 26 -0.015649561137235722
 27 -0.0012620885390763545
 28 0.00027025324635095854
 29 0.00025558722808953987
 30 3.8230870185825028e-17
 31 0.06387121215858052
 32 0.0074510630092945174
 33 0.0022882920680944024
 34 0.0014662500916333351
 35 8.1246828845079204e-17
 36 0.063869941016083245
 37 0.0074509147697473729
 38 -0.0022882465506078031
 39 -0.0014662209209490296
 40 -1.3643932714428867e-17
 41 0.10666378580887109
 42 0.0036128930969541728