[Molden Format]
[Title]
generated by GANSU
[Atoms] (Angs)
C 1 6 0 1.387 0
C 2 6 1.201 0.693 0
C 3 6 1.201 -0.693 0
C 4 6 0 -1.387 0
C 5 6 -1.201 -0.693 0
C 6 6 -1.201 0.693 0
H 7 1 0 2.469 0
H 8 1 2.139 1.235 0
H 9 1 2.139 -1.235 0
H 10 1 0 -2.469 0
H 11 1 -2.139 -1.235 0
H 12 1 -2.139 1.235 0
[GTO]
1 0
 s 3 1.00
    13.0451 0.535328
    3.53051 0.444635
    71.6168 0.154329
 s 3 1.00
    2.94125 -0.0999672
    0.683483 0.399513
    0.22229 0.700115
 p 3 1.00
    2.94125 0.155916
    0.683483 0.607684
    0.22229 0.391957

2 0
 s 3 1.00
    71.6168 0.154329
    13.0451 0.535328
    3.53051 0.444635
 s 3 1.00
    0.683483 0.399513
    0.22229 0.700115
    2.94125 -0.0999672
 p 3 1.00
    0.22229 0.391957
    0.683483 0.607684
    2.94125 0.155916

3 0
 s 3 1.00
    71.6168 0.154329
    13.0451 0.535328
    3.53051 0.444635
 s 3 1.00
    2.94125 -0.0999672
    0.683483 0.399513
    0.22229 0.700115
 p 3 1.00
    0.22229 0.391957
    0.683483 0.607684
    2.94125 0.155916

4 0
 s 3 1.00
    3.53051 0.444635
    13.0451 0.535328
    71.6168 0.154329
 s 3 1.00
    0.22229 0.700115
    0.683483 0.399513
    2.94125 -0.0999672
 p 3 1.00
    0.22229 0.391957
    2.94125 0.155916
    0.683483 0.607684

5 0
 s 3 1.00
    13.0451 0.535328
    71.6168 0.154329
    3.53051 0.444635
 s 3 1.00
    0.22229 0.700115
    0.683483 0.399513
    2.94125 -0.0999672
 p 3 1.00
    2.94125 0.155916
    0.683483 0.607684
    0.22229 0.391957

6 0
 s 3 1.00
    3.53051 0.444635
    13.0451 0.535328
    71.6168 0.154329
 s 3 1.00
    0.22229 0.700115
    0.683483 0.399513
    2.94125 -0.0999672
 p 3 1.00
    0.22229 0.391957
    2.94125 0.155916
    0.683483 0.607684

7 0
 s 3 1.00
    3.42525 0.154329
    0.623914 0.535328
    0.168855 0.444635

8 0
 s 3 1.00
    0.168855 0.444635
    0.623914 0.535328
    3.42525 0.154329

9 0
 s 3 1.00
    3.42525 0.154329
    0.623914 0.535328
    0.168855 0.444635

10 0
 s 3 1.00
    3.42525 0.154329
    0.623914 0.535328
    0.168855 0.444635

11 0
 s 3 1.00
    3.42525 0.154329
    0.623914 0.535328
    0.168855 0.444635

12 0
 s 3 1.00
    3.42525 0.154329
    0.623914 0.535328
    0.168855 0.444635

[MO]
Sym= A
Ene= -11.0293
Spin= Alpha
Occup= 2
 1 1.1418718084205677e-11
 2 -9.2097670352041545e-14
 3 0.0032248901675223343
 4 1.5409411222650685e-13
 5 -1.0761193882377052e-16
 6 -0.49624081613833732
 7 -0.014612826960055374
 8 0.0004952681740539905
 9 -0.001573833902013414
 10 -1.8258295561507106e-16
 11 -0.49624081611898735
 12 -0.014612826959594059
 13 0.00049526817420804403
 14 0.0015738339021992825
 15 3.2191293842700869e-16
 16 6.557607738157234e-11
 17 1.4478399316480342e-12
 18 0.0032248901675996648
 19 -2.0956582733096629e-13
 20 -3.8633960443866054e-16
 21 0.49624081625453864
 22 0.014612826963131429
 23 0.00049526817386994469
 24 -0.001573833902183413
 25 -3.4518333348073339e-16
 26 0.49624081621237176
 27 0.014612826961668985
 28 0.00049526817400306216
 29 0.0015738339024699941
 30 2.5268696418584296e-16
 31 -8.8452725111048012e-14
 32 0.0032945588496659356
 33 0.0032945588495401821
 34 -4.4843503618556509e-13
 35 -0.0032945588504726992
 36 -0.0032945588501898226
Sym= A
Ene= -11.029296136072398
Spin= Alpha
Occup= 2
 1 0.30127661185830373
 2 0.004761750478285671
 3 -4.0224553685146685e-13
 4 0.0015777991454436844
 5 1.7028485603724228e-16
 6 0.44846328812138847
 7 0.01122013020715118
 8 0.00073585058291502064
 9 0.00099632821545441916
 10 -1.4436719938065732e-16
 11 0.44846328810309238
 12 0.011220130206528359
 13 0.00073585058285167472
 14 -0.0009963282155811225
 15 3.920247247898562e-17
 16 0.30127661183327786
 17 0.0047617504775508204
 18 -3.6408397362931414e-13
 19 -0.0015777991454250261
 20 2.557261539620876e-17
 21 0.44846328799074892
 22 0.011220130203301971
 23 -0.00073585058296415419
 24 -0.00099632821518257325
 25 7.5253372404828775e-17
 26 0.44846328799782054
 27 0.011220130203431575
 28 -0.00073585058303765865
 29 0.00099632821510514322
 30 -1.0954457836549552e-16
 31 -0.002096339830715185
 32 -0.0031165037404319914
 33 -0.0031165037403088178
 34 -0.0020963398305497969
 35 -0.0031165037395647468
 36 -0.00311650373961001
Sym= A
Ene= -11.029245114762695
Spin= Alpha
Occup= 2
 1 0.50724506558574234
 2 0.013586493820330652
 3 2.1636941145830772e-13
 4 0.00073040004185234491
 5 -2.8491431639217398e-17
 6 0.34292200943834766
 7 0.011465924051834529
 8 0.0012877365760176726
 9 -0.0024527741413085534
 10 1.1607353195817484e-16
 11 -0.34292200951089408
 12 -0.011465924053972346
 13 -0.0012877365759554789
 14 -0.0024527741410726323
 15 1.66166176702162e-16
 16 -0.50724506558651794
 17 -0.013586493820025483
 18 1.0126586334947815e-13
 19 0.00073040004194870067
 20 2.1641607940213877e-17
 21 -0.34292200947902129
 22 -0.011465924053280906
 23 0.0012877365759894309
 24 -0.0024527741413026775
 25 -4.9729505632874484e-18
 26 0.34292200950434548
 27 0.011465924054024005
 28 -0.0012877365759537468
 29 -0.0024527741412288186
 30 1.1247852899206932e-17
 31 -0.0033404468565234298
 32 -0.0023110742957960194
 33 0.0023110742962846676
 34 0.0033404468565288686
 35 0.0023110742960787065
 36 -0.0023110742962389069
Sym= A
Ene= -11.028943464490416
Spin= Alpha
Occup= 2
 1 -7.5008017104303912e-12
 2 -2.6511069503002248e-13
 3 0.0033515422131966928
 4 8.3186195392605111e-15
 5 1.7345439025920806e-18
 6 -0.4958858647144363
 7 -0.021791764401028646
 8 0.00043441671052732076
 9 0.0021919620869253627
 10 4.7952363602795319e-16
 11 0.49588586470455426
 12 0.021791764400641081
 13 -0.00043441671046922427
 14 0.0021919620869826273
 15 -1.5230317047446799e-16
 16 2.1467825853803003e-11
 17 7.5844144908446159e-13
 18 -0.0033515422131225664
 19 1.1710855753757272e-14
 20 -4.3824565238855517e-16
 21 -0.49588586469973278
 22 -0.021791764400766935
 23 -0.00043441671060581158
 24 -0.0021919620868924004
 25 -4.3538038779397051e-16
 26 0.49588586471268203
 27 0.021791764401050559
 28 0.00043441671057038738
 29 -0.0021919620868773287
 30 3.3167331920776757e-16
 31 4.9819799990304547e-14
 32 0.0034513190908749963
 33 -0.0034513190908099277
 34 -1.5071516312582403e-13
 35 0.0034513190907862158
 36 -0.0034513190908717906
Sym= A
Ene= -11.028821592485183
Spin= Alpha
Occup= 2
 1 0.6336005860324565
 2 0.026359916454439903
 3 -4.3753917263528936e-14
 4 -0.001444951086274139
 5 1.0050611606483985e-16
 6 -0.21259210312353022
 7 -0.010810196830000425
 8 0.0023458530274990275
 9 -0.0019480546091799364
 10 1.6532504500429756e-16
 11 -0.21259210310581153
 12 -0.010810196829089133
 13 0.0023458530274195581
 14 0.0019480546092277937
 15 1.3013059316216654e-16
 16 0.63360058601617875
 17 0.026359916453441188
 18 1.499621477176177e-14
 19 0.0014449510861497159
 20 -1.7257102507093866e-16
 21 -0.21259210310176532
 22 -0.010810196828843412
 23 -0.0023458530274163489
 24 0.0019480546092808288
 25 -1.773173224287278e-16
 26 -0.21259210313600538
 27 -0.010810196830499753
 28 -0.0023458530275095243
 29 -0.001948054609156093
 30 2.4425111743960101e-17
 31 -0.0044168987200948213
 32 0.0014805997847150247
 33 0.0014805997845907272
 34 -0.0044168987199727228
 35 0.0014805997845601633
 36 0.0014805997848062258
Sym= A
Ene= -11.028711843396369
Spin= Alpha
Occup= 2
 1 -0.48461728285076711
 2 -0.023407266333472281
 3 -5.6205115926822299e-14
 4 0.0020486424632348943
 5 2.4572394805473237e-16
 6 0.35819121791692993
 7 0.019687525705237071
 8 -0.0020612123291151533
 9 -0.00071817515281590971
 10 4.4072065915256752e-17
 11 -0.35819121792138925
 12 -0.019687525705622887
 13 0.002061212329242933
 14 -0.00071817515273154393
 15 9.6236653706596292e-17
 16 0.48461728288679518
 17 0.023407266334922815
 18 2.7024161511056315e-14
 19 0.0020486424633032732
 20 -1.7816079900182513e-16
 21 -0.35819121791384412
 22 -0.019687525705219904
 23 -0.0020612123292366672
 24 -0.00071817515266151856
 25 -1.8483336028009184e-16
 26 0.35819121790091374
 27 0.01968752570457815
 28 0.0020612123291024907
 29 -0.00071817515277538646
 30 7.0928603509303232e-18
 31 0.0034518736116085596
 32 -0.0026059925637285093
 33 0.0026059925637576102
 34 -0.0034518736118593304
 35 0.0026059925637020552
 36 -0.0026059925636104275
Sym= A
Ene= -1.0957186355373285
Spin= Alpha
Occup= 2
 1 0.10483138999537309
 2 -0.26338091135725572
 3 4.9274415640843171e-16
 4 0.053577260185170131
 5 3.4212972285730495e-17
 6 0.10492370198476453
 7 -0.26356922036378888
 8 0.046397888966501696
 9 0.026936640242546883
 10 -9.8966031942686332e-17
 11 0.10492370198476184
 12 -0.26356922036377994
 13 0.046397888966500232
 14 -0.026936640242548764
 15 -5.4581541971768985e-17
 16 0.10483138999536729
 17 -0.2633809113572404
 18 1.2229368691940438e-15
 19 -0.053577260185169576
 20 1.6218875541319322e-16
 21 0.10492370198476259
 22 -0.26356922036378222
 23 -0.046397888966499885
 24 -0.026936640242550484
 25 1.5417937878278652e-16
 26 0.10492370198476579
 27 -0.26356922036379132
 28 -0.046397888966503376
 29 0.026936640242547594
 30 6.8500825075975528e-18
 31 -0.04640711076593209
 32 -0.046337383452242094
 33 -0.046337383452242337
 34 -0.046407110765928419
 35 -0.046337383452243218
 36 -0.046337383452244828
Sym= A
Ene= -0.95824618540380213
Spin= Alpha
Occup= 2
 1 -1.9854926240030189e-13
 2 5.3146629884754439e-13
 3 0.11196402790740849
 4 -3.2471288851823619e-14
 5 2.6873723703162277e-16
 6 -0.12723326853846703
 7 0.34139041289654243
 8 0.0096264572698393381
 9 -0.059359677339208931
 10 5.3227320264328454e-16
 11 -0.12723326853826636
 12 0.34139041289599881
 13 0.009626457269999571
 14 0.059359677339419742
 15 1.9493807699833021e-16
 16 1.9674946440135629e-13
 17 -5.2785741578575623e-13
 18 0.11196402790740508
 19 -3.2331580265550573e-14
 20 5.8918503414841846e-16
 21 0.1272332685384637
 22 -0.34139041289653033
 23 0.0096264572698409809
 24 -0.059359677339211429
 25 -4.9002695547839223e-16
 26 0.12723326853826791
 27 -0.34139041289600597
 28 0.0096264572700001765
 29 0.059359677339420186
 30 5.9858172645264145e-16
 31 1.4648826066693186e-13
 32 0.093469263119956791
 33 0.093469263119811838
 34 -1.4467580407346455e-13
 35 -0.093469263119956597
 36 -0.093469263119814891
Sym= A
Ene= -0.95804208785753331
Spin= Alpha
Occup= 2
 1 0.14689568163326849
 2 -0.3942361701046892
 3 1.5202819738982118e-13
 4 0.024407636435128704
 5 -1.4196093939980864e-16
 6 0.0733915585328484
 7 -0.19696988329935883
 8 0.059123223931954301
 9 -0.077955204996272412
 10 -2.9489665478267008e-16
 11 -0.073391558533195872
 12 0.19696988330029
 13 -0.059123223931930126
 14 -0.07795520499610864
 15 -6.0158843516812723e-16
 16 -0.14689568163327008
 17 0.39423617010469225
 18 1.4993285410000777e-13
 19 0.024407636435133585
 20 -2.6365172942047674e-16
 21 -0.073391558532852591
 22 0.19696988329936654
 23 0.059123223931955869
 24 -0.077955204996269303
 25 4.8117951527127561e-16
 26 0.073391558533190335
 27 -0.19696988330027285
 28 -0.05912322393193048
 29 -0.077955204996114441
 30 4.2195635749568988e-16
 31 -0.10826536036285193
 32 -0.053991005673953395
 33 0.053991005674209037
 34 0.1082653603628512
 35 0.053991005673958148
 36 -0.053991005674208704
Sym= A
Ene= -0.76916482625612737
Spin= Alpha
Occup= 2
 1 0.11435325884746245
 2 -0.33519117743639909
 3 -1.9105493206387504e-13
 4 -0.07139335605427212
 5 6.4886892876584087e-17
 6 -0.057124175042268244
 7 0.16736931300722008
 8 0.11660422708857876
 9 -0.13162274013472156
 10 -4.1118990417529865e-18
 11 -0.057124175042459036
 12 0.16736931300777716
 13 0.11660422708858603
 14 0.13162274013449321
 15 1.9698152739582433e-16
 16 0.11435325884746375
 17 -0.33519117743640159
 18 1.9614693207740664e-13
 19 0.071393356054269802
 20 -3.8136306985549009e-16
 21 -0.057124175042264642
 22 0.16736931300720881
 23 -0.11660422708857779
 24 0.13162274013472536
 25 2.5522753851141751e-16
 26 -0.057124175042460285
 27 0.16736931300778171
 28 -0.11660422708859002
 29 -0.13162274013449404
 30 -3.5603965686320276e-16
 31 -0.17730637876240651
 32 0.088074166473264631
 33 0.088074166473561741
 34 -0.17730637876240787
 35 0.088074166473261245
 36 0.08807416647356843
Sym= A
Ene= -0.76872816869198202
Spin= Alpha
Occup= 2
 1 -1.1155688475500937e-13
 2 3.2821492622304827e-13
 3 -0.19895326243783606
 4 7.2196807809185772e-14
 5 -6.7455806882155159e-17
 6 0.0989467151782151
 7 -0.29013790495799024
 8 -0.0035962838243908486
 9 -0.11701078409465046
 10 6.3098429114979343e-16
 11 -0.098946715178105646
 12 0.29013790495766828
 13 0.0035962838241686032
 14 -0.11701078409490286
 15 -1.8617622142235269e-16
 16 -1.1178713370068193e-13
 17 3.2824974521741461e-13
 18 0.19895326243783584
 19 -7.1890352319522237e-14
 20 -1.4868984077019393e-16
 21 0.098946715178216724
 22 -0.29013790495799135
 23 0.0035962838243928518
 24 0.11701078409464542
 25 2.0463220091951671e-16
 26 -0.098946715178102704
 27 0.29013790495765862
 28 -0.0035962838241667379
 29 0.11701078409491034
 30 -1.3011694179845889e-18
 31 1.7449415272250529e-13
 32 -0.15325258935409819
 33 0.15325258935393393
 34 1.7569092457907855e-13
 35 -0.15325258935410607
 36 0.15325258935393618
Sym= A
Ene= -0.6656397116323316
Spin= Alpha
Occup= 2
 1 -0.0091767975708383683
 2 0.037718684068198199
 3 4.4737051626226548e-15
 4 0.19954290876452585
 5 -1.6633760256027449e-16
 6 -0.0094494898178034119
 7 0.038661350847055791
 8 0.17312308028536758
 9 0.099374230436356611
 10 1.2034126167939257e-17
 11 -0.0094494898178017084
 12 0.03866135084705017
 13 0.17312308028536399
 14 -0.099374230436352323
 15 -6.1922059094984062e-17
 16 -0.00917679757084045
 17 0.037718684068204611
 18 -2.9187957596588756e-15
 19 -0.19954290876451555
 20 1.7573521408417447e-16
 21 -0.0094494898178031257
 22 0.038661350847054222
 23 -0.17312308028536438
 24 -0.0993742304363599
 25 5.8375819617443371e-16
 26 -0.0094494898178006451
 27 0.038661350847047471
 28 -0.17312308028537576
 29 0.099374230436357874
 30 9.0275040465052008e-17
 31 0.17458430104937178
 32 0.17492637418924872
 33 0.17492637418924323
 34 0.1745843010493642
 35 0.17492637418925008
 36 0.17492637418925455
Sym= A
Ene= -0.59350655640186323
Spin= Alpha
Occup= 2
 1 -0.064969778179602797
 2 0.21791076256976424
 3 -5.3547719623617222e-15
 4 0.14199059900459232
 5 5.8882860325312304e-16
 6 0.065209334642551645
 7 -0.21872050403611784
 8 -0.12066273237578029
 9 -0.070237422669587282
 10 4.459688314118314e-16
 11 -0.065209334642551645
 12 0.21872050403611695
 13 0.12066273237579471
 14 -0.070237422669582841
 15 -8.8307548175828672e-17
 16 0.064969778179604754
 17 -0.21791076256976968
 18 -2.4694663192499252e-15
 19 0.14199059900458844
 20 -6.1705320530721089e-16
 21 -0.065209334642551617
 22 0.21872050403611587
 23 -0.12066273237578753
 24 -0.070237422669582106
 25 -5.7326237953193977e-16
 26 0.065209334642549646
 27 -0.21872050403610954
 28 0.12066273237579625
 29 -0.070237422669588059
 30 1.6057585604476644e-16
 31 0.23374664979605875
 32 -0.23169682058802324
 33 0.2316968205880337
 34 -0.23374664979605722
 35 0.23169682058802815
 36 -0.23169682058803578
Sym= A
Ene= -0.55729873594775536
Spin= Alpha
Occup= 2
 1 8.8496645756345568e-16
 2 -3.5831588067440396e-15
 3 -0.28259339519620846
 4 -1.3970921531551105e-14
 5 6.0795839873998197e-16
 6 -0.00015943394263283494
 7 0.00035220737465791932
 8 0.13981428486753533
 9 -0.24675227613629608
 10 5.3034982957159948e-16
 11 -0.00015943394262966749
 12 0.00035220737464810621
 13 0.1398142848675358
 14 0.24675227613629672
 15 5.8027852322100867e-17
 16 6.8865911335959796e-16
 17 -2.2453903234824891e-15
 18 -0.28259339519620558
 19 -9.138447768282255e-15
 20 -2.9289502421889985e-16
 21 0.00015943394263095471
 22 -0.00035220737465271412
 23 0.13981428486752651
 24 -0.24675227613629916
 25 2.1317389214079649e-16
 26 0.00015943394263000623
 27 -0.00035220737464864614
 28 0.1398142848675448
 29 0.24675227613629985
 30 7.9138025824414502e-16
 31 -1.5540277946670655e-14
 32 -0.0021478776015316642
 33 -0.0021478776015369933
 34 8.1099423736354234e-15
 35 0.0021478776015452861
 36 0.002147877601530838
Sym= A
Ene= -0.53603239543045234
Spin= Alpha
Occup= 2
 1 0.026986472140681624
 2 -0.084560743238494718
 3 -3.2563052582441447e-13
 4 0.31469466243536787
 5 1.4638110062286426e-15
 6 0.01300819196939562
 7 -0.040538236017649387
 8 0.17467198599770978
 9 0.014239549676876432
 10 1.3628698001325932e-15
 11 -0.013008191969229227
 12 0.040538236017129102
 13 -0.17467198599614975
 14 0.014239549675662754
 15 1.4638774916024405e-15
 16 -0.026986472140681849
 17 0.084560743238495259
 18 -3.331226703884768e-13
 19 0.31469466243537092
 20 1.1742817018941236e-15
 21 -0.013008191969395644
 22 0.040538236017647958
 23 0.17467198599772257
 24 0.014239549676883937
 25 3.932051119257652e-16
 26 0.013008191969229952
 27 -0.040538236017131184
 28 -0.17467198599615094
 29 0.014239549675653756
 30 8.0338393279204817e-16
 31 0.28127570150487607
 32 0.14255925722408563
 33 -0.14255925722232976
 34 -0.28127570150487441
 35 -0.14255925722409896
 36 0.14255925722232446
Sym= A
Ene= -0.53599020999541513
Spin= Alpha
Occup= 2
 1 9.5612442742652524e-14
 2 -2.9866668564760802e-13
 3 0.088848073116624293
 4 1.1312554922611575e-12
 5 3.8840821794812679e-16
 6 -0.02304720449388829
 7 0.071906754800302258
 8 -0.21614318775063063
 9 -0.17188279723905078
 10 5.8342585592829153e-16
 11 -0.023047204493983304
 12 0.071906754800596495
 13 -0.2161431877518751
 14 0.17188279723914932
 15 -1.7835835420467229e-16
 16 -9.6144043273756525e-14
 17 3.0028201007507713e-13
 18 0.088848073116614704
 19 1.1419759014720707e-12
 20 -7.3116243772241577e-16
 21 0.023047204493887717
 22 -0.07190675480029883
 23 -0.21614318775061467
 24 -0.17188279723905397
 25 2.0221262744782139e-16
 26 0.023047204493984619
 27 -0.071906754800602352
 28 -0.21614318775188288
 29 0.17188279723915509
 30 4.9513968396922578e-16
 31 1.0121630330580172e-12
 32 -0.24476690679470467
 33 -0.24476690679571153
 34 -1.0219532024361949e-12
 35 0.24476690679469346
 36 0.24476690679571897
Sym= A
Ene= -0.46096171352475263
Spin= Alpha
Occup= 2
 1 6.0970411953281276e-17
 2 -1.5932540173108718e-16
 3 -2.2324447049391086e-15
 4 1.1028697964924926e-15
 5 -0.28409862143001502
 6 3.5897433949023543e-17
 7 5.5459642489070345e-18
 8 2.7521895570855194e-15
 9 -3.0032754255195565e-16
 10 -0.28435406017971915
 11 -1.5327761860733279e-16
 12 3.0408303072126987e-16
 13 -2.431490594363072e-15
 14 1.24189237628228e-16
 15 -0.28435406017971471
 16 -6.4423595862406433e-17
 17 9.0395685971093814e-17
 18 2.0055666296143561e-15
 19 1.5170358141568006e-15
 20 -0.28409862143000558
 21 1.4312402502921799e-16
 22 -3.9401714915336417e-16
 23 -1.0536110239126852e-15
 24 -1.8548608508929469e-16
 25 -0.28435406017972004
 26 6.6891783228205378e-17
 27 -3.3598303721409806e-16
 28 1.2073828432073585e-15
 29 9.0979992246589648e-16
 30 -0.28435406017972481
 31 1.0699400945715434e-15
 32 2.2944758561853358e-15
 33 -2.237876831850839e-15
 34 -7.6423507566102084e-16
 35 1.7033738507290516e-15
 36 -9.791839947657753e-16
Sym= A
Ene= -0.43406901033987605
Spin= Alpha
Occup= 2
 1 -0.0075478029774333809
 2 0.015374813091764115
 3 -1.4103845437259078e-13
 4 -0.24128304238175247
 5 2.5119163615165467e-15
 6 0.0037758621094455148
 7 -0.0074891073041145791
 8 -0.018432855623506574
 9 0.27347546994367594
 10 2.161293585478696e-15
 11 0.0037758621094369535
 12 -0.0074891073040930451
 13 -0.018432855623761936
 14 -0.27347546994369176
 15 -3.4066059136947061e-16
 16 -0.0075478029774331797
 17 0.015374813091763201
 18 1.4451889803613082e-13
 19 0.24128304238176068
 20 -1.8872349099443498e-15
 21 0.0037758621094429886
 22 -0.0074891073041056435
 23 0.018432855623511001
 24 -0.27347546994366562
 25 -2.2902695752100414e-15
 26 0.0037758621094376326
 27 -0.007489107304097159
 28 0.018432855623762387
 29 0.27347546994368588
 30 6.7134236422464247e-16
 31 -0.29898149560050336
 32 0.14973062721183897
 33 0.14973062721157868
 34 -0.29898149560051096
 35 0.14973062721183453
 36 0.14973062721157201
Sym= A
Ene= -0.43336955421877377
Spin= Alpha
Occup= 2
 1 5.4787280931663308e-15
 2 -1.4074084751957222e-14
 3 -0.28425346095983095
 4 1.2585549308225432e-13
 5 2.1369878642884677e-16
 6 0.006547139323009191
 7 -0.013234979901128688
 8 0.25202748897105282
 9 -0.018581780424313091
 10 7.8703408390778031e-16
 11 -0.0065471393230145157
 12 0.013234979901140444
 13 -0.25202748897104299
 14 -0.018581780424037384
 15 3.5172571794520197e-15
 16 3.4530403848493399e-15
 17 -6.2546408002263314e-15
 18 0.28425346095984688
 19 -1.1986991935639612e-13
 20 4.380899322785669e-15
 21 0.0065471393230104478
 22 -0.013234979901131493
 23 -0.25202748897105914
 24 0.018581780424313615
 25 2.0645627747372143e-15
 26 -0.0065471393230141289
 27 0.013234979901140935
 28 0.25202748897102784
 29 0.018581780424040135
 30 5.2678684706822083e-16
 31 1.5271064460829506e-13
 32 0.2592530974672102
 33 -0.2592530974673678
 34 1.4879909175342174e-13
 35 0.25925309746721287
 36 -0.25925309746734998
Sym= A
Ene= -0.28292380080299906
Spin= Alpha
Occup= 2
 1 -3.5918504689940403e-16
 2 1.6519805286272301e-15
 3 -3.3384437526520026e-16
 4 2.2227028432882404e-15
 5 -3.8140164426508367e-13
 6 -1.9811340200518074e-16
 7 9.7018035150735173e-16
 8 3.6534280143918948e-16
 9 2.1015454049112398e-15
 10 -0.39233267707465908
 11 1.7680783508863858e-16
 12 -8.8043654197549121e-16
 13 -5.3644585964365371e-16
 14 9.9802486198224505e-16
 15 -0.39233267707428093
 16 3.4511262042426362e-16
 17 -1.6119432038525887e-15
 18 5.1105832703350737e-16
 19 4.208019513551975e-15
 20 3.7563605330285418e-13
 21 5.3779780394759344e-17
 22 -6.3742019097837712e-16
 23 1.8655536429604204e-16
 24 1.4201840511654702e-15
 25 0.39233267707465713
 26 -2.8280004190130841e-17
 27 -4.8759047796491148e-17
 28 -2.0070805071202365e-16
 29 2.3344287632046407e-15
 30 0.39233267707427699
 31 -3.7499516353572e-15
 32 -8.9335776113919008e-16
 33 1.3289297617026787e-15
 34 3.1178443259062696e-15
 35 1.9244044919159604e-15
 36 -1.3168086926676983e-15
Sym= A
Ene= -0.28246733723555023
Spin= Alpha
Occup= 2
 1 -5.4975509940375666e-18
 2 3.0652521715099033e-16
 3 -1.0414667336678714e-15
 4 2.2702499517594523e-15
 5 0.45319643432336537
 6 -7.8870761796040741e-17
 7 1.3593643371738889e-15
 8 2.0948939040493363e-15
 9 -2.8975292705901432e-16
 10 0.22650928454671984
 11 1.5344181048632491e-16
 12 -7.6373031176561529e-16
 13 -1.5994814650365306e-15
 14 1.7120740556048089e-15
 15 -0.22650928454738231
 16 -6.6936117438128313e-17
 17 3.2096922979364006e-16
 18 1.4526146236429945e-15
 19 -1.9763693436212805e-15
 20 -0.45319643432336892
 21 9.5190715317166008e-17
 22 7.3761551161516104e-17
 23 -6.7732590548841766e-16
 24 2.5683734494214338e-15
 25 -0.22650928454672645
 26 -3.5215408597888677e-16
 27 9.4161853893404477e-16
 28 4.429448644532348e-16
 29 -5.6582258535935831e-16
 30 0.22650928454737507
 31 -3.2737745221644569e-16
 32 -5.565161405141842e-16
 33 -7.6525146498491106e-16
 34 1.2189138172324411e-15
 35 1.1394956455583828e-15
 36 -3.1140476406726678e-15
Sym= A
Ene= 0.27048043143927059
Spin= Alpha
Occup= 0
 1 -3.7749891251671638e-16
 2 2.0667972122079914e-15
 3 5.5688264905018643e-16
 4 1.3744021714964114e-15
 5 -0.56267622316617838
 6 1.0944451958869625e-16
 7 -1.3193936520382021e-15
 8 6.8544148532109003e-16
 9 1.050874796568135e-15
 10 0.28112579495511841
 11 -2.2695388336579837e-16
 12 1.0092906739225248e-15
 13 3.8414271942230421e-16
 14 1.0124498861511874e-15
 15 0.28112579495516549
 16 1.2812726587571015e-16
 17 -1.0862416083005948e-15
 18 -5.4542851350278931e-17
 19 2.4577535429707846e-15
 20 -0.56267622316617516
 21 -6.956343658363319e-17
 22 -4.7027729394972336e-17
 23 6.7059422041184364e-17
 24 1.2913825102836287e-15
 25 0.28112579495511142
 26 -1.7255304923128759e-17
 27 -2.8793964035130487e-16
 28 -3.8390112340248521e-16
 29 1.3613191074002741e-15
 30 0.28112579495516965
 31 -2.7518428277320103e-15
 32 -3.4522649499496315e-16
 33 -1.6261047731359777e-16
 34 2.8100043107484416e-15
 35 6.6541580508393691e-16
 36 -1.001047560870565e-15
Sym= A
Ene= 0.27103096459666698
Spin= Alpha
Occup= 0
 1 2.4121448893182273e-16
 2 -1.5562548879273176e-15
 3 -2.0180391403847189e-16
 4 8.1892682428189721e-16
 5 -2.8903620726626337e-14
 6 -2.3979613702737896e-16
 7 1.9960398009038871e-15
 8 3.3948707901403791e-16
 9 1.1492274929517674e-15
 10 0.48734358366861974
 11 2.8566659138184216e-16
 12 -1.67172994438073e-15
 13 -8.7511332006871139e-16
 14 9.9650335065701908e-16
 15 -0.48734358366858826
 16 -1.2475560131412811e-17
 17 3.3781291000966115e-17
 18 9.8643712715745232e-18
 19 1.5080344659517188e-15
 20 -3.2164289231293074e-14
 21 2.7111931087226508e-16
 22 -1.7690135710729049e-15
 23 7.1474555627081719e-16
 24 7.7846620826574353e-16
 25 0.48734358366862268
 26 -3.0469111187966397e-16
 27 1.6976688645770489e-15
 28 -1.6574451671122543e-16
 29 9.7862896645531671e-16
 30 -0.48734358366859276
 31 -2.8330612358463974e-16
 32 -1.5087113541960888e-15
 33 1.9601069025857582e-15
 34 1.3037030071725025e-15
 35 1.8922833642814828e-15
 36 -1.9758192301860867e-15
Sym= A
Ene= 0.50913567517254921
Spin= Alpha
Occup= 0
 1 -6.8282447082704286e-16
 2 4.3556951497346503e-15
 3 -8.5850835682648557e-16
 4 2.3496740393431138e-15
 5 0.44706140916451237
 6 -1.943430866272396e-16
 7 7.7819759425469027e-16
 8 2.0259345586832414e-15
 9 2.2404187738563371e-15
 10 -0.44732757164178788
 11 -6.3995849850023483e-16
 12 4.2087308917281472e-15
 13 -1.2570800928979885e-15
 14 3.2541010908168764e-16
 15 0.4473275716417916
 16 -9.1121918968022223e-17
 17 5.7066859511316695e-16
 18 -2.0677577885633793e-15
 19 -7.4500377759204793e-16
 20 -0.44706140916451964
 21 -2.5234255234814788e-16
 22 2.0451983977131325e-15
 23 -3.8463722668806434e-15
 24 -1.405822779943002e-15
 25 0.44732757164178788
 26 1.0584387783353429e-16
 27 4.3142475194243775e-16
 28 -9.9410542756467016e-16
 29 1.5477490132453346e-16
 30 -0.44732757164178433
 31 -5.2050706374096363e-15
 32 -3.1375692320475693e-15
 33 -1.1698756528119114e-15
 34 -1.5400205491061861e-15
 35 -5.8519916819991167e-15
 36 -2.5039717648756925e-15
Sym= A
Ene= 0.5788325068077862
Spin= Alpha
Occup= 0
 1 -0.052567105451342237
 2 0.33466297713302801
 3 -2.2261781929611206e-14
 4 0.2672568732910629
 5 -2.8549427926359977e-15
 6 -0.052675861762353254
 7 0.33498399577039795
 8 0.23341863486355813
 9 0.1348212545862601
 10 3.3413758232677465e-15
 11 -0.052675861762340855
 12 0.33498399577031612
 13 0.23341863486355163
 14 -0.13482125458627386
 15 -2.8936993269255327e-15
 16 -0.052567105451342286
 17 0.33466297713302567
 18 2.0568358840377708e-15
 19 -0.26725687329104275
 20 2.3130528944876099e-15
 21 -0.052675861762348654
 22 0.33498399577036519
 23 -0.23341863486356595
 24 -0.13482125458626071
 25 -3.1088912759077542e-15
 26 -0.052675861762345733
 27 0.33498399577034821
 28 -0.23341863486358053
 29 0.13482125458627189
 30 2.8755746594993063e-15
 31 -0.51078629436841583
 32 -0.5130675114053167
 33 -0.51306751140527562
 34 -0.51078629436839518
 35 -0.51306751140530893
 36 -0.5130675114053217
Sym= A
Ene= 0.64891655014321037
Spin= Alpha
Occup= 0
 1 -1.0348642914242462e-13
 2 6.7772144386096094e-13
 3 -0.27259728323424487
 4 1.562860954142012e-12
 5 -8.5324625370625253e-16
 6 0.026524535816252769
 7 -0.17302105956938008
 8 -0.42374786500959633
 9 -0.087362226150874814
 10 9.3452393876823445e-16
 11 0.026524535816349126
 12 -0.17302105957000397
 13 -0.42374786501019063
 14 0.087362226153049977
 15 -7.8453279652617857e-16
 16 1.0148492923944706e-13
 17 -6.6473347047275026e-13
 18 -0.27259728323426136
 19 1.5978507263756643e-12
 20 1.1839756945881771e-15
 21 -0.026524535816241385
 22 0.1730210595693048
 23 -0.42374786500960093
 24 -0.087362226150878741
 25 -1.2769467292649019e-15
 26 -0.026524535816352963
 27 0.17302105957002781
 28 -0.42374786501019968
 29 0.087362226153027703
 30 1.0544500682687657e-15
 31 -2.1776116753364862e-12
 32 0.56898292246464377
 33 0.56898292246683213
 34 2.2082462732469372e-12
 35 -0.56898292246460636
 36 -0.56898292246683801
Sym= A
Ene= 0.65027919075707441
Spin= Alpha
Occup= 0
 1 -0.030016481754588997
 2 0.19659029433321151
 3 9.2189784116150883e-13
 4 0.47417191164978789
 5 4.3519211532977802e-16
 6 -0.016150404414511068
 7 0.1048372554322584
 8 0.088348657931000815
 9 0.32298902907962068
 10 1.8641166633240217e-16
 11 0.016150404414333009
 12 -0.1048372554310957
 13 -0.08834865792818325
 14 0.32298902907903265
 15 2.3113625645967218e-15
 16 0.030016481754596119
 17 -0.19659029433325681
 18 8.9567849848129672e-13
 19 0.47417191164979655
 20 3.4915798204785533e-15
 21 0.016150404414521008
 22 -0.10483725543232185
 23 0.088348657931030833
 24 0.32298902907961813
 25 -4.6974777521031548e-15
 26 -0.016150404414343827
 27 0.10483725543116577
 28 -0.088348657928185206
 29 0.32298902907903404
 30 -1.4170371863641949e-15
 31 -0.65502554508972632
 32 -0.33190161305115712
 33 0.33190161304736515
 34 0.65502554508976019
 35 0.33190161305121341
 36 -0.33190161304739801
Sym= A
Ene= 0.72883668512098276
Spin= Alpha
Occup= 0
 1 0.11975521904088543
 2 -0.7559139453878001
 3 -2.0640649926637113e-14
 4 -0.06577556724013435
 5 6.1971099883070706e-16
 6 -0.11945496183708175
 7 0.75374527252791734
 8 0.053534944500405343
 9 0.028961328985620902
 10 -1.01659432721865e-15
 11 0.119454961837087
 12 -0.75374527252794588
 13 -0.053534944500418444
 14 0.028961328985631762
 15 2.888603448918122e-15
 16 -0.11975521904089639
 17 0.75591394538787127
 18 -1.8282831331163139e-14
 19 -0.065775567240130978
 20 -2.6606582432016437e-15
 21 0.11945496183709126
 22 -0.75374527252797741
 23 0.053534944500420088
 24 0.028961328985654278
 25 -7.439392029415754e-16
 26 -0.11945496183708081
 27 0.75374527252790702
 28 -0.053534944500439538
 29 0.028961328985617207
 30 1.0036216011862108e-15
 31 0.45892181279362598
 32 -0.4517062647408614
 33 0.45170626474089853
 34 -0.45892181279365335
 35 0.45170626474091918
 36 -0.45170626474088693
Sym= A
Ene= 0.74338604691903176
Spin= Alpha
Occup= 0
 1 -4.5039637326375212e-12
 2 2.93579603227864e-11
 3 0.363776188567908
 4 -5.0114178968107832e-13
 5 1.6888797918572807e-16
 6 0.14045697066880039
 7 -0.91551937710244546
 8 -0.080783253080150802
 9 0.16174829356356066
 10 9.9831817070915722e-18
 11 -0.14045697066430857