[Molden Format]
[Title]
generated by GANSU
[Atoms] (Angs)
Br 1 35 -0.0889 1.8607 0.139
Br 2 35 1.656 -0.8533 0.139
Br 3 35 -1.5672 -1.0072 0.139
C 4 6 0 -0.0001 -0.4171
H 5 1 0 -0.0001 -1.5097
[GTO]
1 0
 s 3 1.00
    479.057 0.535328
    129.652 0.444635
    2630 0.154329
 s 3 1.00
    219.835 -0.0999672
    51.0849 0.399513
    16.6144 0.700115
 p 3 1.00
    219.835 0.155916
    51.0849 0.607684
    16.6144 0.391957
 s 3 1.00
    19.5017 -0.227764
    5.94865 0.217544
    2.29517 0.916677
 p 3 1.00
    2.29517 0.484646
    5.94865 0.577766
    19.5017 0.00495151
 s 3 1.00
    0.227529 1.13103
    0.515226 0.0196064
    1.39604 -0.308844
 p 3 1.00
    1.39604 -0.121547
    0.515226 0.571523
    0.227529 0.549895
 d 3 1.00
    5.94865 0.655547
    19.5017 0.219768
    2.29517 0.286573

2 0
 s 3 1.00
    129.652 0.444635
    479.057 0.535328
    2630 0.154329
 s 3 1.00
    16.6144 0.700115
    51.0849 0.399513
    219.835 -0.0999672
 p 3 1.00
    16.6144 0.391957
    51.0849 0.607684
    219.835 0.155916
 s 3 1.00
    2.29517 0.916677
    5.94865 0.217544
    19.5017 -0.227764
 p 3 1.00
    5.94865 0.577766
    19.5017 0.00495151
    2.29517 0.484646
 s 3 1.00
    1.39604 -0.308844
    0.515226 0.0196064
    0.227529 1.13103
 p 3 1.00
    1.39604 -0.121547
    0.227529 0.549895
    0.515226 0.571523
 d 3 1.00
    19.5017 0.219768
    2.29517 0.286573
    5.94865 0.655547

3 0
 s 3 1.00
    129.652 0.444635
    479.057 0.535328
    2630 0.154329
 s 3 1.00
    219.835 -0.0999672
    51.0849 0.399513
    16.6144 0.700115
 p 3 1.00
    16.6144 0.391957
    51.0849 0.607684
    219.835 0.155916
 s 3 1.00
    2.29517 0.916677
    5.94865 0.217544
    19.5017 -0.227764
 p 3 1.00
    2.29517 0.484646
    5.94865 0.577766
    19.5017 0.00495151
 s 3 1.00
    0.515226 0.0196064
    0.227529 1.13103
    1.39604 -0.308844
 p 3 1.00
    1.39604 -0.121547
    0.515226 0.571523
    0.227529 0.549895
 d 3 1.00
    2.29517 0.286573
    5.94865 0.655547
    19.5017 0.219768

4 0
 s 3 1.00
    13.0451 0.535328
    3.53051 0.444635
    71.6168 0.154329
 s 3 1.00
    2.94125 -0.0999672
    0.683483 0.399513
    0.22229 0.700115
 p 3 1.00
    0.22229 0.391957
    0.683483 0.607684
    2.94125 0.155916

5 0
 s 3 1.00
    3.42525 0.154329
    0.623914 0.535328
    0.168855 0.444635

[MO]
Sym= A
Ene= -484.876
Spin= Alpha
Occup= 2
 1 -8.761283770137516e-05
 2 -1.3198782800813446e-06
 3 -4.2452391947915211e-09
 4 5.5250015908229989e-09
 5 -4.0230247621729151e-10
 6 8.913058309985354e-07
 7 2.391519378667703e-08
 8 -3.040721150798743e-08
 9 2.4963654992986306e-09
 10 -3.1586594600801435e-07
 11 -2.5952101994144994e-07
 12 3.1870183777650031e-07
 13 -3.0544007323385358e-08
 14 -3.0629798262077649e-07
 15 -3.1822080834951615e-07
 16 -3.0313214090051696e-07
 17 1.1743920128037821e-08
 18 2.9111864636066805e-09
 19 8.0542185713818742e-10
 20 -0.99432191556560434
 21 -0.014780629563283243
 22 1.7321522921042234e-06
 23 -8.9232318377483084e-07
 24 5.6894358691958989e-07
 25 0.029716326662210232
 26 -1.0154020212375242e-06
 27 5.2309409793831196e-07
 28 -3.3530299007634989e-07
 29 1.5577092513055502e-05
 30 2.2316937651478685e-06
 31 -1.1496987197719133e-06
 32 7.5157053352689629e-07
 33 -0.012528528318287491
 34 -0.012528048677445398
 35 -0.012527932216707345
 36 3.8838823845097417e-07
 37 -2.3737185633862685e-07
 38 1.2229042717316549e-07
 39 -0.00038690799088101063
 40 -5.7689037771585362e-06
 41 -7.4600814139948353e-09
 42 -5.9622297604675772e-11
 43 -2.3375633156560993e-10
 44 9.8358669619482797e-06
 45 3.8950704438298761e-08
 46 -1.6804054857669226e-09
 47 2.4106300059410779e-09
 48 -3.1092386602415804e-07
 49 -4.1079344854054456e-07
 50 2.6381832173710817e-08
 51 -3.0478077039583495e-08
 52 -4.0948479653528879e-06
 53 -4.0716320586425619e-06
 54 -4.0740148697789534e-06
 55 -2.7874463163005125e-09
 56 1.0954547408070781e-09
 57 -2.7988008878803566e-09
 58 -1.1670228426234608e-06
 59 4.3763938839726929e-06
 60 3.286472023704759e-06
 61 -1.6942565930263415e-06
 62 9.7052928364326635e-07
 63 -6.5147863963959177e-07
Sym= A
Ene= -484.87602236966916
Spin= Alpha
Occup= 2
 1 0.00011312774320949257
 2 1.6991453466134597e-06
 3 -3.6992814265394275e-09
 4 -5.9501960299017387e-09
 5 3.8680705350974814e-10
 6 -1.6552274847867962e-06
 7 2.0920096406498029e-08
 8 3.2553610182831615e-08
 9 -2.4827450165187948e-09
 10 3.1525025530679263e-07
 11 -2.2811934767552611e-07
 12 -3.4182243286318831e-07
 13 3.0468824872842415e-08
 14 6.2658719244336773e-07
 15 6.4216782195910009e-07
 16 6.2524745115575902e-07
 17 1.023181773942422e-08
 18 2.9765046491458426e-09
 19 -5.1556405490844372e-10
 20 -0.00038697327349396287
 21 -5.7348668625189104e-06
 22 -6.0839388607309558e-09
 23 -1.3455201881059503e-09
 24 6.764454708180212e-10
 25 1.3292472940237463e-05
 26 3.7824477256255887e-08
 27 5.7888284669266321e-09
 28 -2.6709408471829038e-09
 29 3.2306972988201468e-07
 30 -4.0469004514327722e-07
 31 -6.6274106530830879e-08
 32 3.1056873054172152e-08
 33 -5.6559139596821595e-06
 34 -5.6792508250214492e-06
 35 -5.6765306404803185e-06
 36 1.0729268255099678e-10
 37 6.3920419998697575e-10
 38 2.9854749826821458e-09
 39 0.99432191297387984
 40 0.014780629587437921
 41 1.6392351214595223e-06
 42 1.0532598975800112e-06
 43 -5.6893591717757826e-07
 44 -0.029716327866096556
 45 -9.6089306495655835e-07
 46 -6.1743236523265771e-07
 47 3.3529482569311791e-07
 48 -1.5577493138255183e-05
 49 2.1115378423253173e-06
 50 1.357012172888139e-06
 51 -7.5153032136343612e-07
 52 0.012528460705863637
 53 0.012528117382175533
 54 0.012527932775762231
 55 4.338547415732967e-07
 56 -2.2463877908545683e-07
 57 -1.443490022785647e-07
 58 1.166093571369764e-06
 59 -4.3729094035254573e-06
 60 3.112474276777133e-06
 61 1.998109823351385e-06
 62 -9.6972692115691872e-07
 63 6.5097660805401789e-07
Sym= A
Ene= -484.87600164542027
Spin= Alpha
Occup= 2
 1 0.994321984264813
 2 0.014780630932157202
 3 9.2991569285730486e-08
 4 -1.9461521301553271e-06
 5 -5.6895438556347003e-07
 6 -0.029716328448056183
 7 -5.450902604514727e-08
 8 1.140803636627899e-06
 9 3.352940350122291e-07
 10 -1.5577670253175135e-05
 11 1.1977650580348095e-07
 12 -2.5068877733680495e-06
 13 -7.51445451616789e-07
 14 0.012527878007297169
 15 0.012528700397568197
 16 0.012527932961505145
 17 -4.5477220034055577e-08
 18 -1.2743693311796953e-08
 19 2.6672297481842699e-07
 20 -8.7624091080057572e-05
 21 -1.2850321365515159e-06
 22 -2.9565456023607391e-09
 23 5.9987089491152397e-09
 24 5.0210295605502067e-10
 25 4.3451078338943745e-06
 26 1.7543319362424599e-08
 27 -3.4289167504496232e-08
 28 -2.5528382912361897e-09
 29 3.1848225541552568e-07
 30 -1.8167349777895372e-07
 31 3.6822450678354601e-07
 32 3.0648248121670219e-08
 33 -1.8991869067060444e-06
 34 -1.8915437055814924e-06
 35 -1.9044255898800159e-06
 36 -1.2828066533283541e-08
 37 -1.9830007251054119e-09
 38 -2.2943512642873126e-09
 39 -0.00011321711177172554
 40 -1.6654727135439053e-06
 41 2.3297082237536473e-09
 42 6.2252008166396866e-09
 43 5.1634261086621128e-10
 44 5.1099243262781101e-06
 45 -1.4173756762454054e-08
 46 -3.5784275604321125e-08
 47 -2.5591973054628347e-09
 48 3.1890835818556423e-07
 49 1.4574108119251236e-07
 50 3.8379725436805956e-07
 51 3.0643201815415411e-08
 52 -2.2236695302384972e-06
 53 -2.2119430933608482e-06
 54 -2.2268582361905319e-06
 55 1.1747970593404579e-08
 56 2.1974428277709863e-09
 57 -2.0916531283420633e-09
 58 1.1661166054999228e-06
 59 -4.3730155169906942e-06
 60 1.7640237908703345e-07
 61 -3.6939590083093221e-06
 62 -9.6970243670425893e-07
 63 6.5100889724226813e-07
Sym= A
Ene= -63.680138061181566
Spin= Alpha
Occup= 2
 1 -0.038645290752717887
 2 0.096807190019686989
 3 -2.3536314263070427e-06
 4 -3.759789610074989e-05
 5 -1.1222375657545488e-05
 6 -0.1567313547075892
 7 2.9261322159800183e-05
 8 -2.7838244156976023e-05
 9 -7.6620117437699059e-06
 10 -0.0028883832487896352
 11 -0.00015253750022750905
 12 0.00022615919494166128
 13 6.4210182910329579e-05
 14 0.073417094469261479
 15 0.073416570799935021
 16 0.073416261559326054
 17 -8.5712677328623251e-06
 18 -3.9603769299373316e-06
 19 -3.9175147027907336e-07
 20 0.3180373825305926
 21 -0.79668788373386912
 22 0.00027335225666271033
 23 -0.00014267332791402306
 24 9.2303159211975459e-05
 25 1.2897837167771846
 26 0.00021761304218784606
 27 -9.9612094820763337e-05
 28 6.3388866242999366e-05
 29 0.02376476837135685
 30 -0.0017283535596542261
 31 0.00082716764988741598
 32 -0.00053095727164818038
 33 -0.60417057691556986
 34 -0.60416197170649055
 35 -0.60416196234805963
 36 1.0620821240992125e-06
 37 7.9136998136649338e-07
 38 -2.1956344258882094e-06
 39 -0.27627848409025435
 40 0.69208164432769026
 41 0.00022397455612450194
 42 0.00014685628779589175
 43 -8.0192628219249794e-05
 44 -1.1204447097676493
 45 0.00018394878028204326
 46 9.8356657155106229e-05
 47 -5.4999293246658313e-05
 48 -0.020645463747807399
 49 -0.0014459963203609467
 50 -0.00082866099430603101
 51 0.00046074054811995379
 52 0.52484904429049384
 53 0.52483852346338333
 54 0.52483995869318012
 55 9.1670259901878957e-07
 56 -4.7749701246159806e-08
 57 2.8048493081100825e-06
 58 5.1330694265582192e-06
 59 -3.5169997961825985e-05
 60 -0.004562867543223631
 61 0.00030808099621685886
 62 -8.5241207569269748e-06
 63 -1.220587142956567e-06
Sym= A
Ene= -63.680123233835928
Spin= Alpha
Occup= 2
 1 0.34002239430219461
 2 -0.85176146082303261
 3 -1.6209039960637074e-05
 4 0.00032915830251665059
 5 9.8711221849838654e-05
 6 1.3789705742597214
 7 -8.9972850830424139e-06
 8 0.00025602663441632537
 9 6.7611015952807299e-05
 10 0.025410091666084059
 11 8.141001539169765e-05
 12 -0.0020477924042150153
 13 -0.00056639609697585035
 14 -0.64593996204912907
 15 -0.64594742356839796
 16 -0.64593891326303832
 17 -5.8186675709512e-07
 18 -5.4522948913392948e-07
 19 1.7770156369753708e-06
 20 -0.14025062256486953
 21 0.35132921649020776
 22 -0.00012267219393381434
 23 5.8891557670688331e-05
 24 -4.0692674944464863e-05
 25 -0.56876341802079733
 26 -8.1646716110583698e-05
 27 7.102037164920087e-05
 28 -2.8033347658503285e-05
 29 -0.010478581229079673
 30 0.00069025480806143521
 31 -0.00050243724994418677
 32 0.00023471131655306509
 33 0.26641784018560893
 34 0.26642746811861351
 35 0.26642085914259811
 36 -5.8311343484268932e-06
 37 -2.3579392928382566e-06
 38 -2.9156757389126151e-06
 39 -0.20901086902008806
 40 0.52357459501321468
 41 0.00017232537856910849
 42 0.00010674301029748353
 43 -6.0649716779219483e-05
 44 -0.84761841310072061
 45 0.00011975179536556299
 46 0.0001037314771151069
 47 -4.1727345773774388e-05
 48 -0.015616665609976498
 49 -0.00099642818680894065
 50 -0.00077613615064965754
 51 0.00034941311048194501
 52 0.3970405633366621
 53 0.39704977489314358
 54 0.39704243217167984
 55 5.00774945601766e-06
 56 2.6850777033958202e-06
 57 -2.0923109411440143e-06
 58 -1.5227562298098361e-05
 59 0.00010419547927225764
 60 -0.00030829347534180114
 61 -0.0045617920013502587
 62 2.5263138265873691e-05
 63 3.6122286055708801e-06
Sym= A
Ene= -63.679266760426188
Spin= Alpha
Occup= 2
 1 -0.24874770484339623
 2 0.62306978664175716
 3 1.1727353320972117e-05
 4 -0.00024568174470335604
 5 -7.0959315981677966e-05
 6 -1.0072192955258044
 7 7.4524044226099122e-06
 8 -0.00015426828315141241
 9 -5.7844096944747847e-05
 10 -0.018438263693106683
 11 -6.7102735820757998e-05
 12 0.0013955889217108089
 13 0.00047726564506291838
 14 0.47180867064055387
 15 0.47179213132757203
 16 0.47180680850247059
 17 8.9053802874960941e-07
 18 1.0023572249966727e-07
 19 -2.3316431245771682e-06
 20 -0.24117646419255215
 21 0.6041037604136863
 22 -0.00021211256302650723
 23 0.00010932031347293304
 24 -6.8759546088237845e-05
 25 -0.97651572123916497
 26 -0.00013241378876128551
 27 6.7872904496463042e-05
 28 -5.6334028375644018e-05
 29 -0.017872850290012503
 30 0.0012025723454745819
 31 -0.00061771960673308204
 32 0.00046461738922634849
 33 0.45741328516174018
 34 0.45742290038250766
 35 0.45742460683333691
 36 7.9339017146742082e-06
 37 -2.0207715090040557e-06
 38 1.0861873067689054e-06
 39 -0.24283484084369772
 40 0.60825801052183204
 41 0.00020207814537770961
 42 0.00012990788135626435
 43 -6.9240289357302924e-05
 44 -0.98324095908445885
 45 0.00012643068479109782
 46 8.0779510628502704e-05
 47 -5.6663026721520717e-05
 48 -0.017996680731550814
 49 -0.0011468056426654698
 50 -0.00073447017975513599
 51 0.00046736996846786377
 52 0.46056496997805152
 53 0.46057175115083271
 54 0.46057485060386394
 55 -8.833285763244551e-06
 56 1.9089155440510394e-06
 57 1.2875409431724997e-06
 58 -0.0012055349979086523
 59 0.0082362658998804232
 60 -1.5535073111597688e-05
 61 5.9171279586665241e-05
 62 0.0019960381551557427
 63 0.00028546573433965543
Sym= A
Ene= -57.908758048785984
Spin= Alpha
Occup= 2
 1 8.7318665784359474e-06
 2 -2.0980198042747734e-05
 3 0.00016696521829458034
 4 -0.0028760939676888116
 5 -0.00078118474463119533
 6 -3.5884906216980231e-08
 7 5.9584583538039399e-06
 8 -9.5281987201308992e-05
 9 -2.5702730633318907e-05
 10 -1.5858811932142419e-06
 11 -3.9726348277454204e-07
 12 1.2201566107402533e-05
 13 3.5088929748178363e-06
 14 -3.290500683495295e-07
 15 1.6924910128271797e-06
 16 -2.3058627071984113e-07
 17 -5.5332268946708604e-07
 18 -2.2682119578234844e-07
 19 4.4815136102031552e-07
 20 -0.00072497961462549042
 21 0.0018199787692089603
 22 0.24652541142952139
 23 -0.12699927378462647
 24 0.076424273449675173
 25 -0.0024145733658831434
 26 0.0081281360179066078
 27 -0.0041872492650786826
 28 0.0025201383935881984
 29 0.00011482700131612588
 30 -0.0011997779216950193
 31 0.00061809655188691534
 32 -0.00037574769560223147
 33 0.0010559039527625253
 34 0.0011287920586182012
 35 0.0011449121578754728
 36 5.8993627535969284e-05
 37 -3.6834067748829624e-05
 38 1.8967033131277259e-05
 39 3.57828192677039e-05
 40 -8.8855531767836513e-05
 41 0.01113085910903496
 42 0.0071181018685056684
 43 -0.0036278271489801474
 44 8.9037608125830828e-05
 45 0.00036763061592936277
 46 0.00023460741610197114
 47 -0.00011957109962065727
 48 -5.8719035893279388e-06
 49 -5.2401773966873815e-05
 50 -3.3905639170351176e-05
 51 1.7500153688804784e-05
 52 -3.7842666107609007e-05
 53 -4.1340468390981702e-05
 54 -4.247575068904212e-05
 55 3.3992196913759437e-06
 56 -1.7917919324711082e-06
 57 -9.1608180885616023e-07
 58 4.4841595972398493e-05
 59 -0.00032409187733900167
 60 -0.00024623379049835189
 61 0.00011725800616654337
 62 -7.5114135642432548e-05
 63 3.793068076616429e-06
Sym= A
Ene= -57.908752177796636
Spin= Alpha
Occup= 2
 1 -1.2025452738328927e-05
 2 2.9154488904591784e-05
 3 -0.00016854836193492596
 4 0.0040914131286082789
 5 0.0011144601836589629
 6 -8.0258010115482453e-06
 7 -5.1902329079902399e-06
 8 0.00013543883507361387
 9 3.6686892050171707e-05
 10 2.1285101970744657e-06
 11 1.0216073975931892e-06
 12 -1.790676866012588e-05
 13 -5.113203760299923e-06
 14 4.2921257268298004e-06
 15 1.505711174913757e-06
 16 4.0777971915059826e-06
 17 -2.4733870794340588e-07
 18 -1.5565945715530671e-07
 19 -6.5084786287528145e-07
 20 3.3166223994077593e-05
 21 -8.4234287843782101e-05
 22 -0.011687853733874936
 23 0.0060535388235017978
 24 -0.0036407698821521264
 25 0.00014063416539999789
 26 -0.000384728980808907
 27 0.00019973329372452385
 28 -0.00012011549107315795
 29 -5.0481145877082556e-06
 30 5.8716206091374189e-05
 31 -3.0025943773953246e-05
 32 1.8236749332775577e-05
 33 -6.312432776760814e-05
 34 -6.5500216654782568e-05
 35 -6.6426856736048753e-05
 36 -2.6577129570750898e-06
 37 1.6315378660057881e-06
 38 -1.0640599303448955e-06
 39 0.00072482032620960592
 40 -0.0018196684865243768
 41 0.2332925313744553
 42 0.14990214619062656
 43 -0.076422061583535095
 44 0.0024168236039083238
 45 0.007691778806535053
 46 0.0049423847481673173
 47 -0.0025200706979706853
 48 -0.00011477571732187585
 49 -0.0011355301895804287
 50 -0.0007296208252724058
 51 0.00037576415815740948
 52 -0.0010673872793767712
 53 -0.0011194720852113994
 54 -0.0011459556653802259
 55 6.5877587310855541e-05
 56 -3.4844923516598556e-05
 57 -2.2403444498061346e-05
 58 -4.9157631541998578e-05
 59 0.00035527784975420014
 60 -0.00021147416508273125
 61 -0.00015287161594236965
 62 8.2341613707183152e-05
 63 -4.1582045070315721e-06
Sym= A
Ene= -57.908732092094098
Spin= Alpha
Occup= 2
 1 0.00072558924209365882
 2 -0.0018215916883056083
 3 0.013248761379636828
 4 -0.27728111744243189
 5 -0.076509055515767921
 6 0.0024191753662360193
 7 0.00043682094266511191
 8 -0.0091421270771921328
 9 -0.00252293870622608
 10 -0.00011488934083574718
 11 -6.4483604903914718e-05
 12 0.0013496064878170981
 13 0.00037618161770687259
 14 -0.0011569862054745515
 15 -0.001031992843432898
 16 -0.0011470715787189293
 17 -6.9134860423462424e-06
 18 -1.9799750582256212e-06
 19 4.1424696216782747e-05
 20 6.7315814011703254e-06
 21 -1.7902458797211328e-05
 22 -0.0027378833838525647
 23 0.0013785201262257098
 24 -0.00085865849690896319
 25 5.3502058573536433e-05
 26 -9.0004317653067886e-05
 27 4.4857071110537395e-05
 28 -2.8375955395360303e-05
 29 -8.4953348141231688e-07
 30 1.4903271659077425e-05
 31 -7.8717508374604632e-06
 32 4.5758766675805867e-06
 33 -2.4467680957941796e-05
 34 -2.5361648958585959e-05
 35 -2.5104626704220883e-05
 36 -1.0309966711194777e-08
 37 4.6908107195753934e-07
 38 -2.4172218468925417e-08
 39 9.0388816251384405e-06
 40 -2.369192698772697e-05
 41 0.0033355675090047518
 42 0.002109445627033045
 43 -0.0011014732823850615
 44 6.1101831524004583e-05
 45 0.0001097701886878672
 46 6.893296622638869e-05
 47 -3.6382849978591097e-05
 48 -1.2147405343984022e-06
 49 -1.76893777697827e-05
 50 -1.156894634593206e-05
 51 5.7698281380569143e-06
 52 -2.7829262792798811e-05
 53 -2.8872402250385681e-05
 54 -2.8709009975907232e-05
 55 3.1823617209149915e-07
 56 -5.757669382195973e-07
 57 -1.3942352650616645e-07
 58 -4.8854472751134223e-05
 59 0.0003530756955443644
 60 -1.3221456332802669e-05
 61 0.00026147973850178144
 62 8.1828399015609335e-05
 63 -4.1327154777689437e-06
Sym= A
Ene= -57.906268530175794
Spin= Alpha
Occup= 2
 1 1.0510592251460011e-06
 2 -1.6728597926453277e-06
 3 0.013637005926969471
 4 6.7444475699134624e-05
 5 0.0022049899985595888
 6 -2.499167421195696e-05
 7 0.00044914045413384327
 8 1.7909465083745341e-06
 9 7.2939569620145378e-05
 10 7.7395087807655529e-07
 11 -7.499565293649221e-05
 12 -1.6847379247216052e-06
 13 -1.6631252794529041e-05
 14 1.2094582391430735e-05
 15 1.2286615260686156e-05
 16 1.1622469019097524e-05
 17 -3.7937082422892336e-06
 18 -1.1549556517210835e-06
 19 -3.6785959666392801e-07
 20 1.5848280920528526e-07
 21 -2.359233739257542e-07
 22 -0.12977037784519593
 23 -0.2513987401813827
 24 0.00085121563747425264
 25 -4.2427008318564115e-06
 26 -0.004252589317356119
 27 -0.0082381751288301275
 28 2.8007805908866939e-05
 29 1.4715762283127459e-07
 30 0.00055092750880203099
 31 0.0010675516769035175
 32 -4.827655736649387e-06
 33 5.7909725351982265e-05
 34 -5.3705187226209337e-05
 35 1.9041198114114607e-06
 36 4.5802552606164231e-05
 37 1.0582508181679925e-05
 38 2.0927302267111688e-05
 39 -1.1484733753816008e-06
 40 1.7614963967441735e-06
 41 -0.028992278751114001
 42 0.043101445337028151
 43 -0.0040629666943829629
 44 2.9259389684716799e-05
 45 -0.00095161468078838372
 46 0.0014137044978175715
 47 -0.00013393279776500316
 48 -9.3956350856520777e-07
 49 0.00013046457311243495
 50 -0.00019580342315401924
 51 2.5704489790482786e-05
 52 -2.6014198096346949e-05
 53 -2.7293625349976552e-06
 54 -1.3395262328571229e-05
 55 5.4108941897216883e-06
 56 1.7178123887365607e-06
 57 -4.0554632968453738e-06
 58 -2.7966466021221137e-09
 59 1.9611269307710869e-08
 60 -4.2558697554191406e-05
 61 -6.0972687991966198e-05
 62 -2.8443161098199524e-07
 63 -2.6099858295576981e-09
Sym= A
Ene= -57.906262282516067
Spin= Alpha
Occup= 2
 1 -1.5120935216677406e-06
 2 2.3884461001647545e-06
 3 0.012197176210880886
 4 0.0015467137416496904
 5 -0.0036213473394579752
 6 3.6495023355174195e-05
 7 0.00040118712478609433
 8 5.1523837520253929e-05
 9 -0.00011966317984371088
 10 -1.1278304817102206e-06
 11 -6.3519210347934112e-05
 12 -6.2706506142522038e-06
 13 2.5944102962631877e-05
 14 -1.6927757850281318e-05
 15 -1.8729983113365581e-05
 16 -1.6913464984194851e-05
 17 -3.3134792868253567e-06
 18 -1.0703053942412829e-06
 19 5.1092444626163027e-07
 20 1.048709668152159e-06
 21 -1.5066302565351992e-06
 22 0.022548454644028708
 23 0.047420180468180896
 24 0.0061672735733539234
 25 -2.9735678165778985e-05
 26 0.00073741261887330504
 27 0.0015523682249370097
 28 0.00020288701570703795
 29 9.5927172082566504e-07
 30 -8.9142191999654627e-05
 31 -0.00018688741409554759
 32 -3.4653114223068661e-05
 33 4.7891017097933969e-06
 34 2.4692731754861322e-05
 35 1.3321054676709513e-05
 36 -9.2118388220020016e-06
 37 -3.1174235856077422e-06
 38 -3.2437939152005582e-06
 39 2.6061746926732385e-07
 40 -3.9072653338503145e-07
 41 -0.15266053822690695
 42 0.23808095493493872
 43 0.00098916531787218731
 44 -6.9150820868698797e-06
 45 -0.0050021095433546636
 46 0.0078012813816838601
 47 3.2600297046507325e-05
 48 2.0912253537138704e-07
 49 0.00064544137765799869
 50 -0.0010063236289571944
 51 -6.2023801205029648e-06
 52 -5.8809453856086962e-05
 53 6.5603378200302525e-05
 54 3.1630350057240936e-06
 55 3.2992898405808052e-05
 56 1.2818505966192498e-05
 57 -1.9611722845079717e-05
 58 1.0257174239354471e-08
 59 -7.5309499190533907e-08
 60 -3.4624851406655653e-05
 61 8.4089747035845917e-05
 62 9.9713137475980956e-07
 63 9.2627173876236915e-09
Sym= A
Ene= -57.906242371028647
Spin= Alpha
Occup= 2
 1 -8.6605645335687823e-08
 2 1.3248739756953185e-07
 3 -0.2808156656948862
 4 -0.01332565667562533
 5 -0.00034040509616981512
 6 2.207621427643101e-06
 7 -0.0092018369399390915
 8 -0.0004366167585441128
 9 -1.1203785045044448e-05
 10 -8.3474074150052628e-08
 11 0.0011898520746679402
 12 5.6611638234054681e-05
 13 1.8150482164358264e-06
 14 -7.5291380002583106e-06
 15 5.3390129202914559e-06
 16 -9.9118587865413279e-07
 17 7.8183786626530088e-05
 18 2.3260594850277316e-05
 19 1.1981628538274399e-06
 20 -1.1802506395882522e-06
 21 4.2188171109602463e-06
 22 -0.018334278735509961
 23 -0.0025878807191439031
 24 0.054952823033760929
 25 -4.1248510394961615e-05
 26 -0.00060050118807500623
 27 -8.2961184893210762e-05
 28 0.0018015167353030153
 29 1.5018279298352564e-06
 30 7.0145501908355128e-05
 31 -2.8812355103743741e-07
 32 -0.00024216677259147152
 33 2.7997953686677525e-05
 34 1.9073622772061655e-05
 35 1.1814054016527991e-05
 36 -2.0313959989914053e-06
 37 -1.1861329681633827e-05
 38 7.0692641871395682e-06
 39 -6.6798556347643701e-07
 40 3.5225457513192969e-07
 41 -0.011346296473252263
 42 0.0080998364138482205
 43 -0.018867347609909605
 44 3.6926409082078615e-05
 45 -0.00037148723118241418
 46 0.00026365824443493838
 47 -0.00061915138457673208
 48 -1.2274588054087248e-06
 49 4.0370378480727846e-05
 50 -2.4463043117011222e-05
 51 8.9548704882914465e-05
 52 -2.2596000933024313e-05
 53 -1.5527697574148065e-05
 54 -1.4912668671957379e-05
 55 -2.0398911814594779e-07
 56 -3.2450863583944212e-06
 57 -3.3193629437439608e-06
 58 1.0667186645162821e-07
 59 -8.1220941482242758e-07
 60 -9.2811932250194728e-05
 61 -1.7852044123488071e-06
 62 1.0068134765492561e-05
 63 9.4173570521063682e-08
Sym= A
Ene= -57.906239386931773
Spin= Alpha
Occup= 2
 1 -5.2587062274719388e-07
 2 7.9118461332836601e-07
 3 0.056974561007385342
 4 0.0033168487052419615
 5 -0.0022001666824376736
 6 1.3790954477950441e-05
 7 0.0018658509330891245
 8 0.00010888874862797221
 9 -7.2389345469151402e-05
 10 -5.3008577368074362e-07
 11 -0.00023216737503150854
 12 -1.2576325893471588e-05
 13 1.1325030616873692e-05
 14 -5.1984190427563559e-06
 15 -8.5103678682431677e-06
 16 -6.1646425147179511e-06
 17 -1.597936564158315e-05
 18 -4.7512201692091809e-06
 19 3.5937765449966044e-07
 20 -1.3651720837132074e-05
 21 3.3984435671475349e-05
 22 -0.065713431684746901
 23 0.036099344216131216
 24 0.27193704522108314
 25 -3.8406209153949393e-05
 26 -0.0021529029085181495
 27 0.0011823203862365646
 28 0.0089102841481535737
 29 2.3313509923819504e-06
 30 0.00027623138786691225
 31 -0.00014890011037220594
 32 -0.0011497894434907051
 33 4.6721843259071662e-05
 34 2.645920830834552e-05
 35 -2.0674656181874799e-05
 36 -1.7382678715458216e-05
 37 -6.2183498319684722e-05
 38 3.1854632096509788e-05
 39 -1.2286084863105689e-07
 40 -1.0466537348136681e-08
 41 0.003770246352577983
 42 -0.0085457176010162155
 43 -0.0052789628367444852
 44 8.9453437935334669e-06
 45 0.00012269640070849467
 46 -0.00027895226925170389
 47 -0.00017312047519289103
 48 -4.0970396191652601e-07
 49 -1.068730653105282e-05
 50 2.6158524079081431e-05
 51 2.2756734171771199e-05
 52 -2.7796531361503391e-06
 53 -6.6709017560300925e-06
 54 -3.4067353005051769e-06
 55 -1.6350383021720288e-06
 56 -1.6159001248033109e-06
 57 -1.3602956029987309e-07
 58 7.8913075478653717e-07
 59 -6.0111123778964516e-06
 60 -9.430821255727482e-06
 61 1.3028538395547869e-05
 62 7.4486164304924936e-05
 63 6.9655055119004043e-07
Sym= A
Ene= -57.90623361399318
Spin= Alpha
Occup= 2
 1 -5.4222407339407197e-07
 2 7.8127398289413084e-07
 3 -0.017922676170687154
 4 -7.7656136506794068e-06
 5 -0.0031251350769308543
 6 1.5240217691530068e-05
 7 -0.00058630136116401884
 8 7.1421621206799115e-08
 9 -0.00010272817028651501
 10 -5.8368004603331111e-07
 11 6.7319593801957621e-05
 12 7.4800517208266533e-07
 13 1.5485518131860311e-05
 14 -7.6373794040999018e-06
 15 -7.6000870224119494e-06
 16 -6.7165038700966624e-06
 17 5.1592132929164465e-06
 18 1.4431935535349951e-06
 19 8.9109233359541574e-07
 20 -1.0314322607818535e-06
 21 2.0912487023841729e-06
 22 -0.0045014437667034489
 23 -0.0033659661602170976
 24 0.008885158654179692
 25 1.1129498459535591e-05
 26 -0.00014676173175621728
 27 -0.0001094115203595837
 28 0.00029086492667366765
 29 -4.1733262959477288e-07
 30 1.5503579119080643e-05
 31 5.3931309089423445e-06
 32 -3.5921417122865285e-05
 33 -3.4968814426669145e-06
 34 -6.1771140184205277e-06
 35 -6.4810165117527342e-06
 36 5.0708929202913401e-07
 37 -1.8059797163423553e-06
 38 1.400553606605633e-06
 39 -1.3712437235970989e-05
 40 3.428861348283156e-05
 41 0.063978114930416108
 42 0.041610287984260988
 43 0.27691525389817712
 44 -4.311377190840512e-05
 45 0.0020960039953410907
 46 0.0013631559086192051
 47 0.0090735169002343317
 48 2.4903095530690213e-06
 49 -0.00026793423023626153
 50 -0.00017392343530045983
 51 -0.0011721266672154017
 52 4.6790036873180024e-05
 53 3.1583532597520244e-05
 54 -1.9133969998060594e-05
 55 1.9489017159792605e-05
 56 5.9831348928743745e-05
 57 3.8403735548115368e-05
 58 8.43401665099915e-07
 59 -6.4240635048847799e-06
 60 1.9425753075416342e-05
 61 1.6248007190012811e-05
 62 7.9614289012564952e-05
 63 7.4421480865773711e-07
Sym= A
Ene= -57.906213580144858
Spin= Alpha
Occup= 2
 1 -1.3660983906006581e-05
 2 3.4230196257099015e-05
 3 0.0036092456581795717
 4 -0.076424167703462997
 5 0.27759585696264122
 6 -4.5034889454033188e-05
 7 0.0001182486996552247
 8 -0.0025037651927142658
 9 0.0090958705083094091
 10 2.5483107162292369e-06
 11 -1.514241336645562e-05
 12 0.00031983667717285793
 13 -0.0011755406143972623
 14 2.1665612491270074e-05
 15 5.8651713865159529e-05
 16 -1.8315269528549578e-05
 17 -2.0330415246512431e-06
 18 3.4040642008460621e-06
 19 -7.1167775331324606e-05
 20 -8.0718662635584961e-07
 21 1.4509608274008038e-06
 22 0.00071712317573606335
 23 0.0028591153152395664
 24 0.0023895604454645296
 25 1.4196180863513352e-05
 26 2.3290564826924411e-05
 27 9.2659740048969136e-05
 28 7.7972201881026753e-05
 29 -5.2829149056117281e-07
 30 1.8172545866224944e-06
 31 -4.9411760444373343e-06
 32 -7.8725851800787866e-06
 33 -7.4313354701811181e-06
 34 -6.0644180049057217e-06
 35 -7.0111160721239459e-06
 36 -5.1134585269883815e-07
 37 -6.3912422820616417e-07
 38 6.0627783527693465e-08
 39 -8.4208743621040183e-07
 40 1.5380815989987417e-06
 41 -0.0010110728101054237
 42 0.0031740471067233334
 43 0.0030908061665434073
 44 1.4092128181520424e-05
 45 -3.282667042981373e-05
 46 0.0001030023246094276
 47 0.00010094916977949762
 48 -5.2002366938893327e-07
 49 -1.2267577883923707e-06
 50 -6.7552693188239685e-06
 51 -1.0834468191043591e-05
 52 -7.4629672795784836e-06
 53 -5.8387663836208688e-06
 54 -7.0622847175453652e-06
 55 4.4215864986506205e-07
 56 7.9781945327332351e-07
 57 1.9459377776955949e-07
 58 8.4440873820333879e-07
 59 -6.4302801147280618e-06
 60 1.412957314819145e-06
 61 -2.9443510604526307e-05
 62 7.9722977174847718e-05
 63 7.4477268243008845e-07
Sym= A
Ene= -11.161316675177654
Spin= Alpha
Occup= 2
 1 4.4972851948963527e-05
 2 -8.6985032045411824e-05
 3 -1.5842652312741761e-06
 4 3.3156001090454447e-05
 5 9.7176446378845378e-06
 6 -0.0020755684061118732
 7 9.4513042747749196e-06
 8 -0.00019779973010774013
 9 -5.8145102911341673e-05
 10 -0.0035262353543859051
 11 -0.00017189402951254922
 12 0.0035976438520229775
 13 0.0010629643004798888
 14 0.00094783563182671872
 15 0.00086428660916706718
 16 0.00094118048455314046
 17 4.6197344180126828e-06
 18 1.3827243796668774e-06
 19 -2.8941854371993122e-05
 20 4.4974042229167788e-05
 21 -8.6990397824816823e-05
 22 2.9509454359259897e-05
 23 -1.5202214943134005e-05
 24 9.7174585789590014e-06
 25 -0.0020756429805118114
 26 -0.00017604468248348659
 27 9.0691838584141746e-05
 28 -5.8143721581469139e-05
 29 -0.0035265172301347167
 30 0.003202013700554493
 31 -0.0016496315867828015
 32 0.001063002156585547
 33 0.00088172336884971038
 34 0.00093044676311371428
 35 0.00094120719612432371
 36 3.946128780694556e-05
 37 -2.5759667445134353e-05
 38 1.3271900767440782e-05
 39 4.4973746371915896e-05
 40 -8.6987770932900159e-05
 41 -2.792667242594582e-05
 42 -1.7944053740204767e-05
 43 9.717311208740434e-06
 44 -0.0020756252368585139
 45 0.00016660263355842628
 46 0.00010704905738353858
 47 -5.8142962909185289e-05
 48 -0.0035263891394559863
 49 -0.0030302115155857179
 50 -0.0019471209556908495
 51 0.0010629654726910572
 52 0.00088864558748757982
 53 0.00092351904503375909
 54 0.00094120309243499786
 55 -4.4078668289588294e-05