[Molden Format]
[Title]
generated by GANSU
[Atoms] (Angs)
C 1 6 -0.429 0.643 0
C 2 6 0.429 -0.643 0
C 3 6 0.429 1.923 0
C 4 6 -0.429 -1.923 0
H 5 1 -1.075 0.643 0.876
H 6 1 -1.075 0.643 -0.876
H 7 1 1.075 -0.643 0.876
H 8 1 1.075 -0.643 -0.876
H 9 1 -0.203 2.807 0
H 10 1 1.065 1.96 0.88
H 11 1 1.065 1.96 -0.88
H 12 1 0.203 -2.807 0
H 13 1 -1.065 -1.96 0.88
H 14 1 -1.065 -1.96 -0.88
[GTO]
1 0
 s 3 1.00
    13.0451 0.535328
    3.53051 0.444635
    71.6168 0.154329
 s 3 1.00
    2.94125 -0.0999672
    0.683483 0.399513
    0.22229 0.700115
 p 3 1.00
    0.22229 0.391957
    0.683483 0.607684
    2.94125 0.155916

2 0
 s 3 1.00
    13.0451 0.535328
    3.53051 0.444635
    71.6168 0.154329
 s 3 1.00
    2.94125 -0.0999672
    0.683483 0.399513
    0.22229 0.700115
 p 3 1.00
    0.22229 0.391957
    0.683483 0.607684
    2.94125 0.155916

3 0
 s 3 1.00
    71.6168 0.154329
    13.0451 0.535328
    3.53051 0.444635
 s 3 1.00
    0.22229 0.700115
    0.683483 0.399513
    2.94125 -0.0999672
 p 3 1.00
    0.22229 0.391957
    0.683483 0.607684
    2.94125 0.155916

4 0
 s 3 1.00
    13.0451 0.535328
    71.6168 0.154329
    3.53051 0.444635
 s 3 1.00
    0.22229 0.700115
    0.683483 0.399513
    2.94125 -0.0999672
 p 3 1.00
    0.22229 0.391957
    0.683483 0.607684
    2.94125 0.155916

5 0
 s 3 1.00
    0.168855 0.444635
    0.623914 0.535328
    3.42525 0.154329

6 0
 s 3 1.00
    0.168855 0.444635
    0.623914 0.535328
    3.42525 0.154329

7 0
 s 3 1.00
    0.168855 0.444635
    0.623914 0.535328
    3.42525 0.154329

8 0
 s 3 1.00
    3.42525 0.154329
    0.623914 0.535328
    0.168855 0.444635

9 0
 s 3 1.00
    3.42525 0.154329
    0.623914 0.535328
    0.168855 0.444635

10 0
 s 3 1.00
    3.42525 0.154329
    0.623914 0.535328
    0.168855 0.444635

11 0
 s 3 1.00
    3.42525 0.154329
    0.623914 0.535328
    0.168855 0.444635

12 0
 s 3 1.00
    3.42525 0.154329
    0.623914 0.535328
    0.168855 0.444635

13 0
 s 3 1.00
    0.168855 0.444635
    0.623914 0.535328
    3.42525 0.154329

14 0
 s 3 1.00
    0.623914 0.535328
    3.42525 0.154329
    0.168855 0.444635

[MO]
Sym= A
Ene= -11.0385
Spin= Alpha
Occup= 2
 1 -0.7009519788774079
 2 -0.030339003296669494
 3 -0.0011017342653836634
 4 0.0020357873476354298
 5 -5.4365903237694833e-17
 6 0.70095197091040617
 7 0.030339003040703506
 8 -0.0011017342845798753
 9 0.0020357873725250588
 10 -2.1237517915377463e-16
 11 0.012514365069113907
 12 0.0045349327495122927
 13 -0.0014988104852364282
 14 -0.0020767645206761719
 15 -1.5839116334314682e-16
 16 -0.01251436485541127
 17 -0.0045349326969685837
 18 -0.0014988104699191985
 19 -0.0020767644963519006
 20 2.5284986075320887e-17
 21 0.0049971934524249877
 22 0.0049971934524247518
 23 -0.0049971933961037189
 24 -0.0049971933961040433
 25 -0.00023308398723500986
 26 -0.00010040110609927656
 27 -0.00010040110609990092
 28 0.00023308398593922236
 29 0.00010040110409624148
 30 0.0001004011040959778
Sym= A
Ene= -11.038169232697836
Spin= Alpha
Occup= 2
 1 0.70148103011633145
 2 0.022544173324181002
 3 -0.0016884240302926076
 4 0.0021943961128144994
 5 -1.5026607230279445e-16
 6 0.70148103807684326
 7 0.022544173668799673
 8 0.0016884240177622697
 9 -0.0021943960897170128
 10 -2.3276996822723829e-16
 11 -0.019787234439658942
 12 -0.004663514432426301
 13 0.0013484882602802166
 14 0.0021414307256768018
 15 -1.1590565562402917e-16
 16 -0.019787234589802721
 17 -0.0046635144842366348
 18 -0.0013484882773008278
 19 -0.0021414307492607998
 20 5.3261947689470882e-17
 21 -0.0049593124365030477
 22 -0.0049593124365035273
 23 -0.0049593124932580555
 24 -0.0049593124932587086
 25 0.0001209542674455652
 26 0.00018327173253157523
 27 0.00018327173253128714
 28 0.00012095427014907526
 29 0.00018327173372876697
 30 0.00018327173372831954
Sym= A
Ene= -11.031700123014401
Spin= Alpha
Occup= 2
 1 -0.013175231528609582
 2 0.0034478303163199774
 3 0.0014574189004367155
 4 0.0021859030704144728
 5 -5.2350687715609073e-17
 6 0.013175232108439142
 7 -0.0034478304054419411
 8 0.0014574189389037053
 9 0.0021859031261642803
 10 1.3460867047144818e-15
 11 -0.70129269239764414
 12 -0.026714371907994864
 13 -0.00018933326390916354
 14 -0.00022397043002238138
 15 8.819610438893046e-16
 16 0.70129271191046727
 17 0.026714372646763962
 18 -0.00018933326937324284
 19 -0.00022397043985728312
 20 -3.0512080331169805e-16
 21 5.1753054998517633e-05
 22 5.175305500004282e-05
 23 -5.1753057997457725e-05
 24 -5.1753057995533652e-05
 25 0.0049531016220202301
 26 0.0049632778392942386
 27 0.0049632778392961607
 28 -0.0049531017604032947
 29 -0.0049632779774517769
 30 -0.0049632779774508124
Sym= A
Ene= -11.031681973110715
Spin= Alpha
Occup= 2
 1 0.020546154416650576
 2 -0.0032115242218142812
 3 -0.0013815098696303262
 4 -0.0020040672628282201
 5 3.6052681588778051e-16
 6 0.020546154060995442
 7 -0.0032115241253814777
 8 0.0013815098290523404
 9 0.0020040672020244566
 10 2.0401238940508775e-15
 11 0.7011413075470122
 12 0.026547376150325382
 13 0.00019574224382933302
 14 0.00035252032434695765
 15 2.041760406914835e-15
 16 0.70114128802955489
 17 0.026547375406777592
 18 -0.00019574223858517302
 19 -0.00035252031814762304
 20 -7.4772414169995215e-16
 21 -0.00010568863030609484
 22 -0.00010568863030347208
 23 -0.00010568862894513916
 24 -0.00010568862894171255
 25 -0.0049724273021919414
 26 -0.0049642841735724943
 27 -0.0049642841735678157
 28 -0.0049724271643408957
 29 -0.0049642840354387147
 30 -0.0049642840354374353
Sym= A
Ene= -1.0273149002697719
Spin= Alpha
Occup= 2
 1 0.1408588321073321
 2 -0.37992606501499931
 3 -0.031816136841971009
 4 0.016740221842779655
 5 6.7640028481043453e-17
 6 0.14085883210666358
 7 -0.37992606501291043
 8 0.031816136842097296
 9 -0.016740221843306233
 10 2.0822294682546707e-16
 11 0.093152632788848055
 12 -0.25050222051807586
 13 0.020057084831736131
 14 0.038482809946140596
 15 1.9617449218265168e-16
 16 0.093152632788273362
 17 -0.25050222051653359
 18 -0.020057084831466163
 19 -0.038482809945842043
 20 -6.1808000217439663e-17
 21 -0.086813059924865155
 22 -0.086813059924865724
 23 -0.086813059924286715
 24 -0.086813059924286243
 25 -0.053444223951869055
 26 -0.057369755147590712
 27 -0.057369755147590948
 28 -0.053444223951524789
 29 -0.057369755147298161
 30 -0.057369755147298009
Sym= A
Ene= -0.94251479726387455
Spin= Alpha
Occup= 2
 1 0.078394717702837832
 2 -0.21983604053283751
 3 -0.012116205684956844
 4 -0.086159089058434848
 5 8.1456626814120372e-16
 6 -0.078394717703396913
 7 0.21983604053424957
 8 -0.012116205685179651
 9 -0.086159089058140126
 10 -7.0820086494129533e-16
 11 0.14340559053669061
 12 -0.4019252204711915
 13 0.015016951717953957
 14 0.014779411693079099
 15 2.0226417967059912e-16
 16 -0.14340559053732574
 17 0.40192522047297369
 18 0.01501695171781329
 19 0.01477941169303526
 20 1.0835611375682845e-16
 21 -0.056100343720619512
 22 -0.056100343720620456
 23 0.056100343720938452
 24 0.056100343720937931
 25 -0.10989461586755676
 26 -0.10608810339896449
 27 -0.1060881033989674
 28 0.10989461586801898
 29 0.10608810339952976
 30 0.10608810339952933
Sym= A
Ene= -0.82707931923130174
Spin= Alpha
Occup= 2
 1 0.086961442710525805
 2 -0.26116220173069016
 3 0.019590711092798863
 4 0.10162863277257514
 5 5.0829429562530799e-16
 6 0.086961442710141335
 7 -0.26116220172937404
 8 -0.019590711092022713
 9 -0.10162863277236069
 10 4.0366814110338433e-17
 11 -0.12583670846235226
 12 0.37392401948873544
 13 0.036988575855570104
 14 0.075451915061855127
 15 -1.3152752178433817e-15
 16 -0.12583670846189898
 17 0.3739240194873949
 18 -0.036988575855432693
 19 -0.075451915061765601
 20 8.611144978319921e-16
 21 -0.087952861612948727
 22 -0.087952861612950434
 23 -0.087952861612199937
 24 -0.087952861612201963
 25 0.1434175454023402
 26 0.13200542957424077
 27 0.13200542957424116
 28 0.14341754540190044
 29 0.13200542957377057
 30 0.13200542957377012
Sym= A
Ene= -0.75836520451756206
Spin= Alpha
Occup= 2
 1 -0.1182341958565301
 2 0.3684412716427366
 3 -0.14448429657607104
 4 0.02790432040347331
 5 -3.4496750397764072e-16
 6 0.1182341958572061
 7 -0.3684412716446227
 8 -0.14448429657535822
 9 0.027904320402613741
 10 -1.1907926693432738e-16
 11 0.057365772299195879
 12 -0.17764083047472312
 13 -0.090835021451257811
 14 -0.061455987911802561
 15 2.3790448018071799e-16
 16 -0.057365772299500836
 17 0.17764083047566187
 18 -0.090835021451416184
 19 -0.061455987912404642
 20 2.8141090338086605e-16
 21 0.18783829038861025
 22 0.18783829038861247
 23 -0.18783829038886496
 24 -0.18783829038886654
 25 -0.057333087986869223
 26 -0.10243133559691095
 27 -0.10243133559691202
 28 0.057333087987462041
 29 0.10243133559731166
 30 0.10243133559731143
Sym= A
Ene= -0.61026170146340342
Spin= Alpha
Occup= 2
 1 -7.1769384524851764e-16
 2 2.7652481793375506e-15
 3 3.6627775815487071e-15
 4 3.6949451569391498e-16
 5 0.27916566671510801
 6 1.3924785164309729e-16
 7 -6.7488956250733294e-16
 8 -2.1508248722440487e-16
 9 3.4443470880173738e-15
 10 0.27916566671303389
 11 9.4796008164283506e-18
 12 -1.8635188569930421e-16
 13 -4.0224712682580757e-16
 14 -2.5060797418306586e-15
 15 0.1836934031508077
 16 4.3484793687905596e-16
 17 -1.3811654661274252e-15
 18 -1.7801330548243225e-15
 19 -1.8754845489478298e-15
 20 0.18369340314995386
 21 0.21118940089995222
 22 -0.21118940089995666
 23 0.21118940089824018
 24 -0.2111894008982397
 25 -1.8732459831286765e-15
 26 0.14118883326417569
 27 -0.14118883326417592
 28 9.1424490363723761e-16
 29 0.14118883326360948
 30 -0.14118883326360726
Sym= A
Ene= -0.5552494353907117
Spin= Alpha
Occup= 2
 1 0.00050987606569267193
 2 0.0033317313201330248
 3 0.16454025244828768
 4 -0.16911847632482824
 5 -4.6505120550171338e-16
 6 0.0005098760659265608
 7 0.0033317313193710354
 8 -0.1645402524480018
 9 0.16911847632507382
 10 -3.6743122161347227e-15
 11 -0.0029212391972402853
 12 0.011048904714655434
 13 0.2584280488427691
 14 -0.12643417339078983
 15 1.4591240691107229e-16
 16 -0.0029212391972346821
 17 0.011048904714639148
 18 -0.25842804884322923
 19 0.12643417339039051
 20 -1.14089997268102e-15
 21 -0.091865903450666392
 22 -0.091865903450667752
 23 -0.091865903450806863
 24 -0.09186590345080177
 25 -0.2515163366423217
 26 0.14984011593320759
 27 0.14984011593320606
 28 -0.25151633664225692
 29 0.14984011593348451
 30 0.14984011593348587
Sym= A
Ene= -0.54182294187141844
Spin= Alpha
Occup= 2
 1 -9.6755100459997488e-16
 2 3.1742639591068991e-15
 3 5.359827243997756e-15
 4 2.732971417216214e-15
 5 -0.16938937915978486
 6 1.1668088402340201e-15
 7 -4.9715148417855142e-15
 8 5.1302866106094359e-15
 9 4.8156014813747567e-15
 10 0.16938937916023256
 11 2.454551334691979e-16
 12 7.5810238730033437e-16
 13 4.718952133205479e-15
 14 -1.0966298087215386e-14
 15 -0.30480739329504986
 16 3.8101415740400148e-17
 17 -2.8760444723452402e-16
 18 1.9542071710350375e-15
 19 -1.0144458137993962e-14
 20 0.30480739329718887
 21 -0.13440581077345271
 22 0.13440581077345015
 23 0.13440581077376682
 24 -0.13440581077376154
 25 -1.3881987907263077e-14
 26 -0.25080321705609043
 27 0.25080321705609276
 28 9.9111644456239763e-15
 29 0.25080321705792863
 30 -0.2508032170579293
Sym= A
Ene= -0.53926051574227274
Spin= Alpha
Occup= 2
 1 0.035071053146302683
 2 -0.12595118447750206
 3 -0.16791728231930483
 4 -0.13152599619207822
 5 -3.8482449079539807e-15
 6 -0.03507105314627517
 7 0.12595118447729381
 8 -0.16791728231829248
 9 -0.13152599619109359
 10 8.065458502307427e-15
 11 -0.004481443950913616
 12 0.0094419150176161867
 13 -0.077625859136040767
 14 0.31674300807704026
 15 -9.0017731493922732e-15
 16 0.0044814439509418885
 17 -0.0094419150177997915
 18 -0.077625859137066308
 19 0.31674300807615763
 20 1.120701485387286e-14
 21 0.048683368560778775
 22 0.048683368560788476
 23 -0.04868336856015943
 24 -0.048683368560174037
 25 0.31614163792458333
 26 -0.034515608994832074
 27 -0.034515608994817752
 28 -0.31614163792447775
 29 0.034515608995468336
 30 0.034515608995451058
Sym= A
Ene= -0.48510866721802715
Spin= Alpha
Occup= 2
 1 -0.00095725476373665957
 2 -0.00065917613466272545
 3 -0.18276079551542415
 4 -0.154084867116562
 5 -2.533498769980854e-15
 6 0.00095725476389300261
 7 0.00065917613398573617
 8 -0.18276079551313987
 9 -0.1540848671147349
 10 1.6420916109655101e-15
 11 0.0050217496455744123
 12 -0.024931350847784778
 13 0.3193564439194102
 14 0.040008099391891191
 15 4.7548136131173028e-15
 16 -0.0050217496454451737
 17 0.024931350847163608
 18 0.3193564439172884
 19 0.040008099389820376
 20 1.3923468918917575e-15
 21 0.11525811996936626
 22 0.11525811996937237
 23 -0.11525811996798481
 24 -0.11525811996798954
 25 -0.18967963655848744
 26 0.1983083159609037
 27 0.1983083159608941
 28 0.18967963655874989
 29 -0.19830831595962392
 30 -0.19830831595962536
Sym= A
Ene= -0.46950965562958835
Spin= Alpha
Occup= 2
 1 -3.2617236337135811e-16
 2 1.25173272004881e-15
 3 5.3251112587773885e-16
 4 -6.5084844567157129e-16
 5 0.19847021135317852
 6 -2.0615106386161524e-17
 7 -1.6830683610637352e-16
 8 -4.0889593250216268e-15
 9 -1.9904918402802805e-15
 10 0.19847021135064935
 11 -1.5661869276544352e-16
 12 1.6314522799244751e-15
 13 1.134499632556898e-15
 14 -1.9730918338029019e-15
 15 -0.29177727794217378
 16 -6.0580558682402734e-16
 17 2.6031230234316047e-15
 18 3.5333559596600887e-15
 19 2.4805909895204216e-15
 20 -0.29177727793919861
 21 0.17901647356913197
 22 -0.17901647356913367
 23 0.17901647356644845
 24 -0.17901647356645295
 25 -3.2813555456543717e-15
 26 -0.27350167914360662
 27 0.2735016791436059
 28 4.176733008339723e-16
 29 -0.27350167914069939
 30 0.27350167914069318
Sym= A
Ene= -0.43297801889849019
Spin= Alpha
Occup= 2
 1 -2.6725765804156772e-15
 2 1.165007263662521e-14
 3 3.6726860290180227e-14
 4 2.4657917354649411e-16
 5 0.30024552972525032
 6 -2.4346298538752385e-15
 7 1.100517910136011e-14
 8 -4.127474185750853e-14
 9 -3.9357130420838562e-15
 10 -0.30024552972831581
 11 -2.3288956355198479e-15
 12 9.9702676767645689e-15
 13 -2.4623333420106953e-14
 14 -1.3755840651276278e-14
 15 -0.15778596506464893
 16 -2.1976380367612818e-15
 17 9.1263197116286093e-15
 18 2.9496335660671536e-14
 19 1.643614947052702e-14
 20 0.15778596506703202
 21 0.31421615516335649
 22 -0.31421615516340407
 23 -0.31421615516615775
 24 0.31421615516610479
 25 8.2342483308447994e-15
 26 -0.17491187859191099
 27 0.17491187859188032
 28 1.0622459220800383e-14
 29 0.17491187859424373
 30 -0.17491187859427851
Sym= A
Ene= -0.43080005265208077
Spin= Alpha
Occup= 2
 1 0.019324662487562073
 2 -0.087670170454339238
 3 -0.33413826367263805
 4 -0.044705396481852205
 5 3.7483133603180017e-14
 6 0.019324662487560366
 7 -0.087670170454380331
 8 0.33413826367481841
 9 0.044705396483642718
 10 -3.2478468171508126e-14
 11 0.022561358739372685
 12 -0.09289936644341984
 13 0.22528144605960482
 14 0.15435873966335467
 15 -1.9637191652009369e-14
 16 0.022561358739516962
 17 -0.092899366443971912
 18 -0.2252814460618586
 19 -0.15435873966487285
 20 1.5562903649517114e-14
 21 0.21277113809335751
 22 0.21277113809328072
 23 0.21277113809466394
 24 0.21277113809473475
 25 -0.053437882542476334
 26 0.13467919051724808
 27 0.13467919051729146
 28 -0.053437882542955666
 29 0.13467919051863467
 30 0.13467919051859878
Sym= A
Ene= -0.41469860254766311
Spin= Alpha
Occup= 2
 1 0.013419350101494304
 2 -0.053203666981276911
 3 -0.099602511345052547
 4 0.37401889233769131
 5 3.1739766251365078e-15
 6 0.013419350101309293
 7 -0.053203666980618569
 8 0.099602511344129493
 9 -0.37401889233826624
 10 -2.5381183874751893e-15
 11 -0.018554401936349687
 12 0.073566422863138664
 13 0.0030651017641190499
 14 -0.28582620425614086
 15 -8.7739356393956357e-17
 16 -0.018554401936417914
 17 0.073566422863386632
 18 -0.0030651017630770774
 19 0.28582620425689781
 20 2.5101390812436771e-15
 21 0.051146891865306972
 22 0.051146891865301788
 23 0.051146891864985305
 24 0.051146891864991793
 25 -0.26726053548821466
 26 0.033664955713254036
 27 0.033664955713255361
 28 -0.26726053548804374
 29 0.033664955712644891
 30 0.033664955712640131
Sym= A
Ene= 0.60085336423248192
Spin= Alpha
Occup= 0
 1 0.057943508936988873
 2 -0.30689510777873125
 3 -0.54544082334337196
 4 0.1033880787952981
 5 -1.4426777810961633e-14
 6 -0.05794350893711725
 7 0.30689510777961898
 8 -0.54544082334110788
 9 0.10338807879663457
 10 -1.4684337525870881e-14
 11 -0.044615843380306379
 12 0.25287772479960668
 13 -0.43101497872597322
 14 -0.086853887497741797
 15 -2.3136818151674565e-15
 16 0.044615843380026006
 17 -0.25287772479786863
 18 -0.43101497872544586
 19 -0.086853887496726664
 20 -6.8360646006282978e-15
 21 -0.24716942730586891
 22 -0.24716942730589808
 23 0.2471694273042441
 24 0.24716942730421385
 25 -0.39768552482759212
 26 0.19891623315506354
 27 0.19891623315505683
 28 0.39768552482736286
 29 -0.19891623315536661
 30 -0.19891623315538146
Sym= A
Ene= 0.61755870357095788
Spin= Alpha
Occup= 0
 1 -4.3305972214236276e-15
 2 2.550627899472958e-14
 3 7.605994736506148e-15
 4 1.4418126761476979e-15
 5 -0.49102695290249199
 6 -2.9242418912684473e-16
 7 3.3427460224267192e-15
 8 1.6408121080718157e-14
 9 -5.3077906834148086e-15
 10 -0.4910269528984974
 11 3.4419457731665368e-15
 12 -2.1321685702718626e-14
 13 9.4528443497729777e-15
 14 3.2978902242067664e-15
 15 -0.32652887686975268
 16 -2.9851800466248752e-16
 17 3.6830859673225953e-16
 18 1.2907797161889384e-14
 19 -3.0480560870183278e-15
 20 -0.32652887686820925
 21 0.52209162482650684
 22 -0.52209162482651761
 23 0.52209162482297367
 24 -0.52209162482299887
 25 1.337054520713584e-14
 26 0.33399602517264027
 27 -0.33399602517263449
 28 -1.3739549118804346e-14
 29 0.33399602517078381
 30 -0.33399602517076432
Sym= A
Ene= 0.65191845627566902
Spin= Alpha
Occup= 0
 1 0.012406905433730648
 2 -0.076742799224456634
 3 0.055722055993560851
 4 0.67236452375564237
 5 -7.1784345402599345e-15
 6 -0.012406905435120236
 7 0.076742799232813297
 8 0.055722055991281425
 9 0.6723645237502841
 10 6.4671158919887176e-15
 11 0.070811110019043652
 12 -0.409589555140491
 13 0.068776775862004605
 14 0.46032197112319978
 15 -1.7142957145652274e-14
 16 -0.070811110018509371
 17 0.40958955513745932
 18 0.068776775859487035
 19 0.46032197111609852
 20 1.571791606393837e-14
 21 0.079314086265131131
 22 0.079314086265115255
 23 -0.079314086267517958
 24 -0.079314086267503359
 25 -0.22171209867988784
 26 0.14165551322654166
 27 0.14165551322650921
 28 0.22171209867635852
 29 -0.14165551322661216
 30 -0.14165551322658254
Sym= A
Ene= 0.68358701525679211
Spin= Alpha
Occup= 0
 1 0.10913989586178723
 2 -0.67015636245763799
 3 0.05633407835856763
 4 -0.24022325608609615
 5 1.4097823864766192e-13
 6 0.10913989586053863
 7 -0.67015636244977261
 8 -0.056334078356889083
 9 0.24022325609335335
 10 -1.4981069124917415e-13
 11 0.005376509843092292
 12 -0.056985221398085165
 13 0.054485707919931757
 14 -0.56248500205404561
 15 2.3447377905895837e-13
 16 0.0053765098426077629
 17 -0.056985221395330542
 18 -0.054485707920487195
 19 0.56248500205801966
 20 -2.4524883841353044e-13
 21 0.3270654300946485
 22 0.32706543009493244
 23 0.32706543009035138
 24 0.32706543009004707
 25 0.57744158333543927
 26 -0.036957031427002483
 27 -0.036957031426540131
 28 0.57744158333861317
 29 -0.036957031428161376
 30 -0.036957031428644219
Sym= A
Ene= 0.68702637161660496
Spin= Alpha
Occup= 0
 1 -4.6372906035130958e-14
 2 2.8282958994946413e-13
 3 -1.4514778370692673e-14
 4 1.2729810915986541e-13
 5 0.32850856645808868
 6 -4.9400241462662008e-14
 7 3.0123175420355251e-13
 8 2.155431939478725e-14
 9 -9.0609105499760103e-14
 10 -0.32850856645917309
 11 -5.3134511441184126e-15
 12 4.5755162123566079e-14
 13 -1.4831411201394643e-14
 14 2.7421616528987354e-13
 15 0.53878780952781635
 16 -8.4929837842982464e-16
 17 1.4757874048037713e-14
 18 2.9291982426469985e-14
 19 -2.3491746580696906e-13
 20 -0.53878780953209859
 21 -0.33223698837520793
 22 0.33223698837494314
 23 0.33223698837632698
 24 -0.33223698837661725
 25 -2.8073217222975062e-13
 26 -0.53099625334559064
 27 0.53099625334559419
 28 -2.4148469069800372e-13
 29 0.53099625334960798
 30 -0.53099625334956146
Sym= A
Ene= 0.73641730051179222
Spin= Alpha
Occup= 0
 1 0.037548385890686334
 2 -0.23438516836452333
 3 -0.058592982271498298
 4 -0.21985231208070016
 5 1.7434906018424492e-14
 6 0.037548385889897055
 7 -0.23438516835959983
 8 0.058592982272199778
 9 0.21985231208354392
 10 1.3857554405586407e-14
 11 0.045715288578174029
 12 -0.30693584997097823
 13 -0.64895371251506317
 14 -0.039910036264700702
 15 -1.6730217965498099e-14
 16 0.045715288578784097
 17 -0.30693584997501761
 18 0.64895371251598277
 19 0.039910036266968041
 20 -2.1887793932359208e-14
 21 0.031223269398792417
 22 0.031223269398823712
 23 0.03122326939616131
 24 0.03122326939618611
 25 -0.26360708725997978
 26 0.53029508491864641
 27 0.53029508491861876
 28 -0.26360708725673726
 29 0.53029508492086452
 30 0.53029508492082722
Sym= A
Ene= 0.7501502218054763
Spin= Alpha
Occup= 0
 1 -0.10313130189763357
 2 0.64435193543915292
 3 0.014948894839762797
 4 -0.13233079848714882
 5 -4.2575127108451329e-14
 6 0.10313130189732012
 7 -0.6443519354368118
 8 0.014948894843585988
 9 -0.13233079848604221
 10 4.6907537915051987e-15
 11 -0.10561410832714424
 12 0.69052262274066012
 13 0.10820201487087024
 14 0.42242748749716424
 15 2.5591178989875501e-14
 16 0.1056141083272709
 17 -0.69052262274158493
 18 0.10820201486916621
 19 0.42242748750104309
 20 2.489782482779245e-14
 21 -0.2775696022116052
 22 -0.27756960221167692
 23 0.27756960220864768
 24 0.27756960220865129
 25 -0.56115857270855607
 26 -0.36263511010603666
 27 -0.36263511010599808
 28 0.56115857271335301
 29 0.36263511010549709
 30 0.36263511010554561
Sym= A
Ene= 0.7655031899946213
Spin= Alpha
Occup= 0
 1 -2.3930442194472472e-14
 2 1.7378875712830935e-13
 3 -4.211294461689521e-13
 4 -3.3117554954623485e-13
 5 -0.38082877471148785
 6 3.367068426901727e-14
 7 -1.8114770878261189e-13
 8 4.2567533017193849e-13
 9 2.9238826933071577e-13
 10 -0.38082877470843268
 11 -7.14710218186999e-14
 12 4.5039752413529108e-13
 13 -1.2408358036178698e-13
 14 -1.6710464159649555e-13
 15 0.58776000941358642
 16 -1.305580421767773e-13
 17 8.2368697472444028e-13
 18 8.7251475112653793e-14
 19 1.5481137280098079e-13
 20 0.58776000940851258
 21 0.33421847035716995
 22 -0.33421847035776009
 23 0.33421847035535185
 24 -0.33421847035563962
 25 -1.2065137665435358e-13
 26 -0.5093879741788514
 27 0.50938797417865334
 28 -2.7128475906172675e-13
 29 -0.50938797417470649
 30 0.50938797417415749
Sym= A
Ene= 0.7673595387113864
Spin= Alpha
Occup= 0
 1 0.0015149724295861903
 2 0.025774137238366725
 3 -0.54369449643181378
 4 -0.38189820512158557
 5 2.9029128163432006e-13
 6 0.0015149724600052505
 7 0.025774137051078051
 8 0.5436944964372219
 9 0.38189820509925398
 10 3.0935560503501819e-13
 11 -0.12700184725025632
 12 0.80120948603872955
 13 -0.10198827791920118
 14 -0.20790212856227605
 15 -4.5320520291836858e-13
 16 -0.12700184727378863
 17 0.8012094861869713
 18 0.10198827790151552
 19 0.20790212857657894
 20 -4.7337351797667917e-13
 21 -0.29398629493280221
 22 -0.29398629493228845
 23 -0.2939862948544259
 24 -0.29398629485388739
 25 -0.22197602114461076
 26 -0.25324916240945716
 27 -0.25324916241024431
 28 -0.22197602118722712
 29 -0.25324916248024493
 30 -0.25324916248106544
Sym= A
Ene= 0.76792873661863614
Spin= Alpha
Occup= 0
 1 0.1621064474461375
 2 -0.99850453530796679
 3 -0.03194433270193546
 4 0.14974669611741639
 5 -7.8012470352686354e-14
 6 -0.16210644744550631
 7 0.99850453531023142
 8 -0.031944332603408225
 9 0.14974669618813991
 10 -8.0977396876708179e-14
 11 -0.12002627933715762
 12 0.75714089098731663
 13 0.11782872198405543
 14 -0.0782035845943818
 15 1.0267231281197211e-13
 16 0.12002627931164438
 17 -0.75714089082601277
 18 0.1178287220011268
 19 -0.078203584561022429
 20 1.328568265867788e-13
 21 0.41756117772055168
 22 0.4175611777204099
 23 -0.41756117777228863
 24 -0.41756117777242746
 25 -0.19756684111113862
 26 -0.37781457833589022
 27 -0.37781457833571525
 28 0.19756684106155015
 29 0.37781457828213066
 30 0.37781457828236281
Sym= A
Ene= 0.7973564404131076
Spin= Alpha
Occup= 0
 1 0.095011496820633839
 2 -0.6144392759937497
 3 0.318547377648632
 4 -0.10352254838012691
 5 -2.2767300632128208e-15
 6 0.095011496817957175
 7 -0.61443927597322179
 8 -0.31854737756234125
 9 0.1035225483127661
 10 6.5598810429996154e-15
 11 -0.11241294145432974
 12 0.72184652250340731
 13 -0.12077034003668898
 14 0.24936794234729667
 15 -2.5259327533626009e-14
 16 -0.11241294145477349
 17 0.72184652250727366
 18 0.12077033994058475
 19 -0.24936794229841883
 20 -1.1248241053967931e-14
 21 0.44343251597373629
 22 0.44343251597372946
 23 0.44343251591530797
 24 0.44343251591531663
 25 -0.56988807823573084
 26 -0.25297947564507961
 27 -0.25297947564512574
 28 -0.56988807814028308
 29 -0.25297947570202312
 30 -0.25297947570204321
Sym= A
Ene= 0.79965729689835741
Spin= Alpha
Occup= 0
 1 -0.026015274144908809
 2 0.18093681258251326
 3 -0.43787657292363347
 4 0.33119196111630828
 5 -5.1624895484560944e-15
 6 0.026015274164033781
 7 -0.18093681270630141
 8 -0.43787657299023269
 9 0.33119196113530253
 10 2.0632536202897414e-14
 11 0.001508934771939787
 12 -0.0034742493106264616
 13 0.48031952559258961
 14 -0.22843812024493051
 15 8.1541876167221164e-16
 16 -0.0015089347932778908
 17 0.0034742494476635781
 18 0.48031952561617769
 19 -0.22843812029378374
 20 -1.7213824767329713e-14
 21 -0.33019748567206886
 22 -0.33019748567207352
 23 0.33019748576252467
 24 0.3301974857625582
 25 0.47390533182536604
 26 -0.27534725514829611
 27 -0.27534725514829606
 28 -0.47390533193498963
 29 0.27534725510030017
 30 0.27534725510027264
Sym= A
Ene= 0.8315463313279372
Spin= Alpha
Occup= 0
 1 -5.071878816948881e-15
 2 3.2343668521979788e-14
 3 -1.8208401310496775e-14
 4 -6.9963343526407149e-15
 5 0.65515520807583838
 6 5.6905435672553136e-15
 7 -3.3703458173119192e-14
 8 2.699780442910493e-17
 9 7.0815725943417215e-15
 10 -0.65515520808019456
 11 -4.0185546794507751e-15
 12 2.4814852573866702e-14
 13 8.476483842425622e-15
 14 1.3107938979322909e-15
 15 -0.40494758278821424
 16 -5.4221865641880392e-16
 17 3.0332173366402123e-15
 18 1.1695576529147896e-14
 19 9.8503374935642703e-15
 20 0.40494758279111698
 21 -0.48988104142711497
 22 0.48988104142706534
 23 0.48988104143112982
 24 -0.48988104143109873
 25 -6.3954733945429584e-15
 26 0.30102731444574332
 27 -0.30102731444577346
 28 -1.215594364282078e-17
 29 -0.30102731444809311
 30 0.30102731444810576
