[Molden Format]
[Title]
generated by GANSU
[Atoms] (Angs)
C 1 6 0 0 0
O 2 8 0 0 1.188
O 3 8 0 0 -1.188
[GTO]
1 0
 s 3 1.00
    13.0451 0.535328
    3.53051 0.444635
    71.6168 0.154329
 s 3 1.00
    2.94125 -0.0999672
    0.683483 0.399513
    0.22229 0.700115
 p 3 1.00
    0.22229 0.391957
    0.683483 0.607684
    2.94125 0.155916

2 0
 s 3 1.00
    130.709 0.154329
    23.8089 0.535328
    6.44361 0.444635
 s 3 1.00
    1.1696 0.399513
    0.380389 0.700115
    5.03315 -0.0999672
 p 3 1.00
    5.03315 0.155916
    1.1696 0.607684
    0.380389 0.391957

3 0
 s 3 1.00
    130.709 0.154329
    23.8089 0.535328
    6.44361 0.444635
 s 3 1.00
    5.03315 -0.0999672
    1.1696 0.399513
    0.380389 0.700115
 p 3 1.00
    5.03315 0.155916
    1.1696 0.607684
    0.380389 0.391957

[MO]
Sym= A
Ene= -20.3569
Spin= Alpha
Occup= 2
 1 5.3310913367718627e-14
 2 -9.120964426541328e-13
 3 3.0931812330723062e-16
 4 -1.1894106060721486e-16
 5 0.0095677872602185163
 6 -0.70295128939892226
 7 -0.020016393338160229
 8 -4.3864867276454744e-16
 9 1.520652550383814e-16
 10 0.0038436363049031128
 11 0.70295128953101926
 12 0.02001639334153367
 13 -3.711482073445488e-16
 14 -1.3414361617688153e-16
 15 0.0038436363054458579
Sym= A
Ene= -20.356645171987779
Spin= Alpha
Occup= 2
 1 -0.00056740900712719559
 2 0.0097089362162237364
 3 3.1989945336065334e-16
 4 -3.5648723035834379e-17
 5 8.989551654896996e-13
 6 -0.70307592335158164
 7 -0.017956759221869234
 8 -4.356386494737854e-17
 9 -2.4501899617969233e-18
 10 0.0028806353090485661
 11 -0.7030759232195084
 12 -0.017956759218108517
 13 -2.9494517709815393e-17
 14 9.8753289373598942e-18
 15 -0.002880635308326458
Sym= A
Ene= -11.263041793803808
Spin= Alpha
Occup= 2
 1 -0.99334119050721348
 2 -0.027396076918071183
 3 8.4072476639535375e-17
 4 8.6746312667619202e-17
 5 2.8753958112698198e-16
 6 9.0174029210886823e-05
 7 0.004490743795513636
 8 9.4642777492683612e-17
 9 -1.7039912520459886e-17
 10 -0.00037659107485138899
 11 9.0174029211197054e-05
 12 0.0044907437955140428
 13 8.6834930781224803e-17
 14 -4.3810588532265776e-17
 15 0.00037659107485123796
Sym= A
Ene= -1.4327697774461843
Spin= Alpha
Occup= 2
 1 0.16216078746749979
 2 -0.35010712717043041
 3 3.7815158870126704e-15
 4 5.3390040291473158e-15
 5 9.3675325712068275e-15
 6 0.1487898317195735
 7 -0.52051778923204395
 8 1.9338093525846123e-15
 9 7.7616795429506258e-16
 10 0.10544238876200764
 11 0.14878983171958371
 12 -0.52051778923207548
 13 1.7836537875378494e-15
 14 5.9283924428142406e-16
 15 -0.10544238876201142
Sym= A
Ene= -1.3682165750718343
Spin= Alpha
Occup= 2
 1 7.1541779211919801e-15
 2 -1.4473808726709167e-14
 3 -1.1022458358825946e-15
 4 1.3522797056896977e-16
 5 -0.26146960947703868
 6 0.16148449012914212
 7 -0.54357447506872492
 8 -5.5742533220559092e-16
 9 -1.3022090561080434e-15
 10 0.084409208236808392
 11 -0.16148449012913674
 12 0.5435744750687086
 13 -2.093134377564267e-16
 14 1.260371082313012e-15
 15 0.08440920823678294
Sym= A
Ene= -0.6810150853819501
Spin= Alpha
Occup= 2
 1 0.16348906505286179
 2 -0.55741747198888481
 3 9.2705524798029578e-14
 4 1.1392705690191555e-13
 5 7.6206567643858158e-15
 6 -0.1090304065255039
 7 0.52305207327699199
 8 6.5115664033350719e-14
 9 6.7609831273707939e-14
 10 0.30195348112971948
 11 -0.10903040652549782
 12 0.52305207327698
 13 6.5240273272520421e-14
 14 6.796592584057924e-14
 15 -0.30195348112974008
Sym= A
Ene= -0.62074266195699879
Spin= Alpha
Occup= 2
 1 -1.6624598528857392e-15
 2 6.2669874404856285e-15
 3 -0.34443382169500525
 4 0.32723367811708604
 5 3.3363728318734178e-16
 6 8.8224399628506702e-16
 7 -4.7177256875664693e-15
 8 -0.2572759033052614
 9 0.24442820311655125
 10 -1.9894064124674886e-15
 11 1.2307473427037429e-15
 12 -5.7427420667810913e-15
 13 -0.25727590330529199
 14 0.24442820311657923
 15 2.1688890514546948e-15
Sym= A
Ene= -0.62074266195699834
Spin= Alpha
Occup= 2
 1 -4.9454282341252884e-14
 2 1.7269357240722086e-13
 3 0.32723367811708487
 4 0.34443382169500486
 5 -3.2181206452834797e-16
 6 3.0433925855910286e-14
 7 -1.4876750030970417e-13
 8 0.24442820311654839
 9 0.25727590330525391
 10 -8.158034398782879e-14
 11 3.0360453816433011e-14
 12 -1.4859191331280332e-13
 13 0.2444282031165827
 14 0.2572759033052997
 15 8.2154644809454598e-14
Sym= A
Ene= -0.5831462682787153
Spin= Alpha
Occup= 2
 1 2.9609741234175558e-15
 2 -1.07662274691228e-14
 3 -5.2590024240186342e-16
 4 -4.0661360190283501e-16
 5 -0.38299400988480037
 6 -0.082123119849350723
 7 0.45066538704697234
 8 1.0467983179202399e-15
 9 -4.4773472898151275e-16
 10 0.37076467194793977
 11 0.082123119849346449
 12 -0.45066538704695192
 13 -3.8136330171287296e-16
 14 8.1880670630276334e-17
 15 0.37076467194792939
Sym= A
Ene= -0.38765591924843695
Spin= Alpha
Occup= 2
 1 -7.1634337028253931e-17
 2 5.1512163614969553e-16
 3 -2.5850306772245248e-14
 4 4.0680514650571183e-15
 5 -1.4785513308811867e-16
 6 1.7747188910837716e-17
 7 -5.9250258325320705e-17
 8 -0.51452640769321578
 9 0.12033829276852148
 10 7.7059059593076343e-16
 11 9.8343577008816283e-17
 12 -4.9884034843093068e-16
 13 0.51452640769319546
 14 -0.12033829276851643
 15 3.3228055074153216e-16
Sym= A
Ene= -0.38765591924843396
Spin= Alpha
Occup= 2
 1 4.7151141504710149e-17
 2 -5.0708203751017352e-16
 3 -1.0723030965636653e-14
 4 -2.3568765491871882e-14
 5 5.5995152557932306e-16
 6 -4.7424380364301705e-16
 7 1.061162065060965e-15
 8 -0.12033829276852552
 9 -0.51452640769322278
 10 -7.5332041393902479e-16
 11 5.9759009853171577e-16
 12 -1.3408923337183891e-15
 13 0.12033829276851236
 14 0.51452640769318836
 15 3.0568866353708274e-17
Sym= A
Ene= 0.31056073203304674
Spin= Alpha
Occup= 0
 1 -3.7753526656187126e-16
 2 -9.7994972424464352e-16
 3 -0.73217159086594175
 4 0.21013108264110633
 5 1.7298407620255328e-16
 6 -1.6071491019951718e-16
 7 3.7690852741366915e-16
 8 0.40868606056664297
 9 -0.11729169150858432
 10 -1.1857872316527385e-15
 11 7.7864449764114181e-17
 12 -1.6281923288969343e-16
 13 0.40868606056663415
 14 -0.11729169150858332
 15 6.7396169537657981e-16
Sym= A
Ene= 0.3105607320330504
Spin= Alpha
Occup= 0
 1 -1.2247044054431354e-14
 2 6.8887926252940252e-14
 3 0.21013108264110694
 4 0.73217159086594186
 5 -1.8060921658520932e-16
 6 4.8581225587887203e-15
 7 -3.0355970566512131e-14
 8 -0.1172916915085843
 9 -0.40868606056663925
 10 1.7701035358678219e-14
 11 4.8799918607910716e-15
 12 -3.0569723120491784e-14
 13 -0.11729169150858217
 14 -0.40868606056663898
 15 -1.7846177021154916e-14
Sym= A
Ene= 0.53740445745053633
Spin= Alpha
Occup= 0
 1 -0.19717639946354901
 2 1.2813204782687684
 3 -1.296869577810872e-14
 4 -3.5938392475352828e-14
 5 7.4196736559321364e-15
 6 0.077969337546893239
 7 -0.51576196360165349
 8 3.9753444215748918e-15
 9 1.5305673991295285e-14
 10 0.5224325014947645
 11 0.077969337546895293
 12 -0.51576196360165338
 13 3.6830566005868843e-15
 14 1.5950893003976349e-14
 15 -0.52243250149476039
Sym= A
Ene= 1.3079326936470279
Spin= Alpha
Occup= 0
 1 1.3191756478893747e-15
 2 -7.6957595168051776e-15
 3 -4.4220687419937205e-18
 4 3.9992261391194562e-16
 5 1.3386153693056133
 6 0.096130249594393688
 7 -0.81730972999705298
 8 7.5591075847370413e-17
 9 -2.5953219168078141e-16
 10 0.5608795016034932
 11 -0.096130249594395561
 12 0.81730972999706231
 13 -1.7953925367274785e-17
 14 -1.473228712418729e-16
 15 0.56087950160349664
