[Molden Format]
[Title]
generated by GANSU
[Atoms] (Angs)
C 1 6 0 0.772 0
C 2 6 -0 -0.772 0
C 3 6 -1.428 1.362 0
C 4 6 1.428 -1.362 0
C 5 6 -1.428 2.907 0
C 6 6 1.428 -2.907 0
C 7 6 -2.856 3.497 0
C 8 6 2.856 -3.497 0
C 9 6 -2.857 5.038 0
C 10 6 2.857 -5.038 0
H 11 1 0.537 1.132 0.876
H 12 1 0.537 1.132 -0.876
H 13 1 -0.537 -1.132 0.876
H 14 1 -0.537 -1.132 -0.876
H 15 1 -1.965 1.003 -0.876
H 16 1 -1.965 1.003 0.876
H 17 1 1.965 -1.003 -0.876
H 18 1 1.965 -1.003 0.876
H 19 1 -0.891 3.267 0.876
H 20 1 -0.891 3.267 -0.876
H 21 1 0.891 -3.267 0.876
H 22 1 0.891 -3.267 -0.876
H 23 1 -3.393 3.137 -0.876
H 24 1 -3.393 3.137 0.876
H 25 1 3.393 -3.137 -0.876
H 26 1 3.393 -3.137 0.876
H 27 1 -3.873 5.42 0
H 28 1 -2.349 5.423 0.88
H 29 1 -2.349 5.423 -0.88
H 30 1 3.873 -5.42 0
H 31 1 2.349 -5.423 0.88
H 32 1 2.349 -5.423 -0.88
[GTO]
1 0
 s 3 1.00
    13.0451 0.535328
    3.53051 0.444635
    71.6168 0.154329
 s 3 1.00
    2.94125 -0.0999672
    0.683483 0.399513
    0.22229 0.700115
 p 3 1.00
    2.94125 0.155916
    0.683483 0.607684
    0.22229 0.391957

2 0
 s 3 1.00
    71.6168 0.154329
    3.53051 0.444635
    13.0451 0.535328
 s 3 1.00
    2.94125 -0.0999672
    0.683483 0.399513
    0.22229 0.700115
 p 3 1.00
    2.94125 0.155916
    0.683483 0.607684
    0.22229 0.391957

3 0
 s 3 1.00
    3.53051 0.444635
    13.0451 0.535328
    71.6168 0.154329
 s 3 1.00
    0.683483 0.399513
    2.94125 -0.0999672
    0.22229 0.700115
 p 3 1.00
    2.94125 0.155916
    0.683483 0.607684
    0.22229 0.391957

4 0
 s 3 1.00
    71.6168 0.154329
    13.0451 0.535328
    3.53051 0.444635
 s 3 1.00
    2.94125 -0.0999672
    0.683483 0.399513
    0.22229 0.700115
 p 3 1.00
    2.94125 0.155916
    0.683483 0.607684
    0.22229 0.391957

5 0
 s 3 1.00
    3.53051 0.444635
    13.0451 0.535328
    71.6168 0.154329
 s 3 1.00
    0.22229 0.700115
    0.683483 0.399513
    2.94125 -0.0999672
 p 3 1.00
    0.22229 0.391957
    2.94125 0.155916
    0.683483 0.607684

6 0
 s 3 1.00
    71.6168 0.154329
    13.0451 0.535328
    3.53051 0.444635
 s 3 1.00
    0.22229 0.700115
    0.683483 0.399513
    2.94125 -0.0999672
 p 3 1.00
    2.94125 0.155916
    0.683483 0.607684
    0.22229 0.391957

7 0
 s 3 1.00
    71.6168 0.154329
    13.0451 0.535328
    3.53051 0.444635
 s 3 1.00
    0.22229 0.700115
    0.683483 0.399513
    2.94125 -0.0999672
 p 3 1.00
    2.94125 0.155916
    0.683483 0.607684
    0.22229 0.391957

8 0
 s 3 1.00
    3.53051 0.444635
    71.6168 0.154329
    13.0451 0.535328
 s 3 1.00
    0.22229 0.700115
    0.683483 0.399513
    2.94125 -0.0999672
 p 3 1.00
    2.94125 0.155916
    0.683483 0.607684
    0.22229 0.391957

9 0
 s 3 1.00
    71.6168 0.154329
    13.0451 0.535328
    3.53051 0.444635
 s 3 1.00
    2.94125 -0.0999672
    0.683483 0.399513
    0.22229 0.700115
 p 3 1.00
    2.94125 0.155916
    0.683483 0.607684
    0.22229 0.391957

10 0
 s 3 1.00
    13.0451 0.535328
    71.6168 0.154329
    3.53051 0.444635
 s 3 1.00
    2.94125 -0.0999672
    0.683483 0.399513
    0.22229 0.700115
 p 3 1.00
    0.22229 0.391957
    2.94125 0.155916
    0.683483 0.607684

11 0
 s 3 1.00
    3.42525 0.154329
    0.623914 0.535328
    0.168855 0.444635

12 0
 s 3 1.00
    3.42525 0.154329
    0.623914 0.535328
    0.168855 0.444635

13 0
 s 3 1.00
    0.168855 0.444635
    0.623914 0.535328
    3.42525 0.154329

14 0
 s 3 1.00
    3.42525 0.154329
    0.623914 0.535328
    0.168855 0.444635

15 0
 s 3 1.00
    0.623914 0.535328
    3.42525 0.154329
    0.168855 0.444635

16 0
 s 3 1.00
    3.42525 0.154329
    0.623914 0.535328
    0.168855 0.444635

17 0
 s 3 1.00
    3.42525 0.154329
    0.623914 0.535328
    0.168855 0.444635

18 0
 s 3 1.00
    0.623914 0.535328
    0.168855 0.444635
    3.42525 0.154329

19 0
 s 3 1.00
    3.42525 0.154329
    0.623914 0.535328
    0.168855 0.444635

20 0
 s 3 1.00
    3.42525 0.154329
    0.623914 0.535328
    0.168855 0.444635

21 0
 s 3 1.00
    3.42525 0.154329
    0.623914 0.535328
    0.168855 0.444635

22 0
 s 3 1.00
    0.623914 0.535328
    3.42525 0.154329
    0.168855 0.444635

23 0
 s 3 1.00
    0.623914 0.535328
    3.42525 0.154329
    0.168855 0.444635

24 0
 s 3 1.00
    3.42525 0.154329
    0.623914 0.535328
    0.168855 0.444635

25 0
 s 3 1.00
    3.42525 0.154329
    0.623914 0.535328
    0.168855 0.444635

26 0
 s 3 1.00
    3.42525 0.154329
    0.623914 0.535328
    0.168855 0.444635

27 0
 s 3 1.00
    0.168855 0.444635
    0.623914 0.535328
    3.42525 0.154329

28 0
 s 3 1.00
    3.42525 0.154329
    0.623914 0.535328
    0.168855 0.444635

29 0
 s 3 1.00
    0.168855 0.444635
    0.623914 0.535328
    3.42525 0.154329

30 0
 s 3 1.00
    0.168855 0.444635
    0.623914 0.535328
    3.42525 0.154329

31 0
 s 3 1.00
    3.42525 0.154329
    0.623914 0.535328
    0.168855 0.444635

32 0
 s 3 1.00
    0.168855 0.444635
    3.42525 0.154329
    0.623914 0.535328

[MO]
Sym= A
Ene= -12.0344
Spin= Alpha
Occup= 2
 1 -1.5331025879361526e-08
 2 -3.7398978610086314e-07
 3 3.0275240521602381e-07
 4 4.394653371733899e-07
 5 1.8354079242335176e-12
 6 -8.1218600831919896e-07
 7 1.1410092309584348e-05
 8 7.5782007411019647e-06
 9 -1.4613141399374974e-07
 10 -1.4224324027835085e-11
 11 -1.3665910111003432e-08
 12 1.3210895339309248e-07
 13 7.2263362648795904e-08
 14 -1.5128849630702268e-07
 15 -8.6377946963775067e-12
 16 -7.8270203984487363e-06
 17 8.5101353044766785e-05
 18 5.3620176123392663e-05
 19 -6.5712468518937944e-05
 20 -5.3514396656221698e-11
 21 -1.4807016446294341e-09
 22 2.3852596360302708e-08
 23 -9.2445177441932702e-09
 24 -1.7855140558784011e-08
 25 -3.6119564793729487e-11
 26 1.3482687036270313e-06
 27 -0.00016313951725073061
 28 -8.5676478106047615e-05
 29 -3.8249207098016436e-05
 30 9.6290083776215867e-10
 31 1.4501552519571859e-10
 32 -2.4949262219654799e-09
 33 -1.2730615572137394e-09
 34 1.272305106755911e-09
 35 3.0906061934914259e-10
 36 0.0020812127856119078
 37 0.0066365847401994079
 38 3.0412864616437968e-05
 39 -0.0043194693968083946
 40 -4.9994534360763405e-09
 41 2.1137197547815845e-10
 42 4.3665590023986289e-11
 43 2.1065076332565935e-10
 44 -3.6646298409021005e-11
 45 -6.6627268515702476e-11
 46 -0.99147270397587228
 47 -0.040665403770404007
 48 -0.0001385584758131944
 49 0.00013975362761974031
 50 3.8246394283281676e-08
 51 -2.3053546657596236e-07
 52 -2.3052585047464436e-07
 53 -5.7593408820188845e-07
 54 -5.7587647513021286e-07
 55 4.1521351031405859e-08
 56 4.1469369966987742e-08
 57 9.1179113979149295e-06
 58 9.1184580708718321e-06
 59 2.5345842135163221e-09
 60 2.5775617083431679e-09
 61 -1.6059473148329019e-05
 62 -1.605993724234072e-05
 63 5.9556722834669396e-11
 64 -5.595501572936562e-10
 65 -0.00016834212838403445
 66 -0.0001683407174302709
 67 4.5247365316331001e-11
 68 7.1580584775493561e-11
 69 -1.5127802656389466e-11
 70 0.0081872581433165975
 71 0.0080757307725792746
 72 0.0080757632419036218
Sym= A
Ene= -11.95779347558949
Spin= Alpha
Occup= 2
 1 -8.1844267564665923e-07
 2 1.1442352558291985e-05
 3 -7.5989076725050189e-06
 4 2.5701249842247087e-07
 5 8.9581063705898951e-10
 6 -1.617647972518288e-08
 7 -3.5447263705508034e-07
 8 -2.8491566169460553e-07
 9 -4.3511380942631156e-07
 10 2.4864129671233967e-10
 11 -7.9097674358930004e-06
 12 8.3191223981401823e-05
 13 -5.3456512296736619e-05
 14 6.4353268725374918e-05
 15 -7.1762855469459152e-09
 16 -1.29984616716039e-08
 17 1.2655315995456018e-07
 18 -6.8398520377058181e-08
 19 1.4994710157735514e-07
 20 2.3756913055916323e-11
 21 -4.6498522694067568e-06
 22 -0.00015498387418968595
 23 7.9360278201760781e-05
 24 3.3024125357807022e-05
 25 -5.1126937828508471e-08
 26 -1.696923379590487e-09
 27 2.427551658691976e-08
 28 9.3983733417263293e-09
 29 1.8594605767034006e-08
 30 -1.2480546630726551e-10
 31 0.0018868651498399891
 32 0.0065841502684614219
 33 -5.5629753166051843e-05
 34 0.0042924762372426283
 35 -6.762520802760184e-07
 36 -1.7016810269915306e-10
 37 -3.6786430660131601e-09
 38 1.095067838491337e-09
 39 -1.7733819092022318e-09
 40 3.9037466822904411e-11
 41 -0.99147376657859465
 42 -0.040666793526196537
 43 0.00030849356257536212
 44 -0.0002429287720731102
 45 3.676872856129547e-06
 46 -2.5141786222371287e-10
 47 1.1226704082437783e-10
 48 -2.1665131776267554e-10
 49 2.173476286101983e-11
 50 -1.7617746111987547e-12
 51 -5.3477251974571541e-07
 52 -5.3912799707599439e-07
 53 -2.3690006012086484e-07
 54 -2.3822085952647509e-07
 55 9.3255775340354841e-06
 56 9.3907363628679963e-06
 57 3.9916808064217185e-08
 58 4.0828577741770788e-08
 59 -1.7084050067958786e-05
 60 -1.7214670415259753e-05
 61 3.0726606710385074e-09
 62 2.9245199283101098e-09
 63 -0.00016795587885441721
 64 -0.00016805302985523074
 65 6.091421877541317e-10
 66 4.9276695798881193e-10
 67 0.0082852367943764063
 68 0.0080541757747926157
 69 0.0080569774790325774
 70 -7.3983482101053211e-12
 71 -2.6317330259484351e-11
 72 -2.9389884189517934e-11
Sym= A
Ene= -11.836733728185816
Spin= Alpha
Occup= 2
 1 7.1529478511741379e-07
 2 -9.8275000400902934e-06
 3 2.0301090298872025e-06
 4 6.9635995297878152e-06
 5 -4.4629920438432528e-11
 6 6.9791364522078791e-06
 7 -6.9973998137722948e-05
 8 -3.1640759993630842e-05
 9 6.4694996289036528e-05
 10 2.6017556332698427e-10
 11 1.9951894584396834e-08
 12 1.6413509223510805e-07
 13 3.4538773604651449e-07
 14 8.8349169261514246e-08
 15 -1.0590792152812562e-10
 16 1.0411958463409435e-05
 17 0.00012617846013941898
 18 -4.3875818468134056e-05
 19 -6.7070288173657483e-05
 20 -4.8454161581927202e-09
 21 1.104927165214431e-08
 22 -1.1877398892183031e-07
 23 -9.6730227534033014e-08
 24 8.3618025197539081e-08
 25 -2.0193873493085512e-10
 26 0.00011126673963657296
 27 -0.0060288484850926898
 28 -0.0035685949555116512
 29 0.0015825659645670447
 30 8.1072671295951146e-09
 31 -1.617471103929069e-08
 32 -1.5220420212727495e-08
 33 -1.8559873520332913e-08
 34 -8.6198980689834032e-10
 35 4.8734683773749878e-09
 36 0.99149710773722799
 37 0.039992377374887755
 38 0.00071426619596261579
 39 -0.0011467476359960857
 40 6.8639687946309153e-08
 41 -6.3600301457647501e-10
 42 1.1977129368720635e-09
 43 4.7234307418608963e-10
 44 -9.5024377738195734e-10
 45 -9.8425088239449636e-10
 46 0.0034621840159749229
 47 -0.006915425467570983
 48 -4.4275158013467849e-05
 49 -0.0046588822918456931
 50 -1.0147303570591331e-08
 51 -5.6650883707752911e-07
 52 -5.6655406171764264e-07
 53 -7.1958805169403811e-06
 54 -7.1952473247706775e-06
 55 2.2087715293860229e-07
 56 2.2057367748853744e-07
 57 4.8058351215963559e-05
 58 4.8046430217710788e-05
 59 -3.7721592711405239e-09
 60 -1.7276984231283377e-09
 61 9.633115438388443e-05
 62 9.6322912815830115e-05
 63 -2.6285504292383917e-09
 64 -1.1860199393822022e-08
 65 -0.0080169429423849609
 66 -0.0080170063687733037
 67 2.1334894121554163e-10
 68 6.824677243688973e-10
 69 -6.2639159549397749e-10
 70 0.00015658511187759128
 71 9.1555199042005209e-05
 72 9.1551894361170671e-05
Sym= A
Ene= -11.751192236493273
Spin= Alpha
Occup= 2
 1 6.7866756963269603e-06
 2 -6.7756262041623406e-05
 3 3.0773486313365878e-05
 4 -6.0617382789492059e-05
 5 2.951248766312788e-08
 6 6.6474677605423554e-07
 7 -8.9518081763295589e-06
 8 -1.866255660351937e-06
 9 -6.5060763234721548e-06
 10 6.2997801773396084e-09
 11 1.0426443361286064e-05
 12 9.9652080590310887e-05
 13 5.0874967061495351e-05
 14 5.6864868657930528e-05
 15 -5.1125610980464806e-07
 16 2.2371019765821121e-08
 17 1.1758460716318101e-07
 18 -2.9557273787837388e-07
 19 -1.2377989580802115e-07
 20 -7.9573173151561425e-10
 21 0.00022875502494776323
 22 -0.0054956942294226083
 23 0.0032796485919836076
 24 -0.0014766952679758443
 25 5.7616652102336092e-06
 26 1.0251214524817365e-08
 27 -1.2348595474210361e-07
 28 8.6485579228355244e-08
 29 -8.2742682863765765e-08
 30 -8.3834669895425251e-10
 31 0.99166850508991211
 32 0.039223892259399457
 33 -0.001648289296181181
 34 0.0010721861032757865
 35 -6.4414490741433408e-05
 36 1.9180724768457641e-08
 37 -1.756621343270402e-08
 38 1.3976772041601401e-08
 39 -1.0744866513461709e-09
 40 2.7378674781382403e-10
 41 0.0032443844792123255
 42 -0.006756443435206743
 43 0.000152845682116508
 44 0.0045495742435738909
 45 8.5510523202093611e-06
 46 4.1124590711982822e-12
 47 9.3810185391540821e-10
 48 1.7593034982391759e-10
 49 5.0765208088111337e-10
 50 -9.5914755625510018e-12
 51 -6.3128972508808695e-06
 52 -6.2317457232355378e-06
 53 -7.4798314063742079e-07
 54 -7.5916092594967375e-07
 55 5.0847637741449191e-05
 56 5.1847648409234989e-05
 57 1.8129941569680272e-07
 58 1.9026244552858979e-07
 59 6.7774267143464947e-05
 60 6.8060818561662025e-05
 61 5.3345114196193949e-09
 62 4.496273291838479e-09
 63 -0.0080958353237616486
 64 -0.0080439232397799439
 65 -1.4696335365023752e-09
 66 -2.3528464739128348e-09
 67 0.0001669411990361247
 68 8.0749826478217213e-05
 69 8.3914381982554132e-05
 70 -2.3806266251933175e-10
 71 -1.6737503809143017e-10
 72 -1.8998333255974137e-10
Sym= A
Ene= -10.736439568063277
Spin= Alpha
Occup= 2
 1 -3.5076899366215386e-06
 2 4.8040384650721926e-05
 3 2.7082292701867405e-05
 4 -3.4485719358297653e-05
 5 -3.7493533122406232e-10
 6 -6.6582607955072495e-06
 7 -2.9859983979764991e-05
 8 -5.6318176111513907e-05
 9 -2.926466188654317e-05
 10 5.8164775694238227e-09
 11 -2.741058763872789e-07
 12 4.1231182649661535e-06
 13 4.4149112615257669e-06
 14 -1.0428723233001091e-06
 15 -6.9011487969697591e-11
 16 -0.00011176871203721905
 17 0.0037341003558574119
 18 0.00019989653269333191
 19 -0.0023952774283020895
 20 -7.908878757411677e-08
 21 2.0086651689177337e-08
 22 2.8013773481060794e-07
 23 1.8208028574641377e-07
 24 -7.9658187665011815e-08
 25 -7.6717024715782698e-10
 26 -0.99161022808790411
 27 -0.039111756367174871
 28 -0.001992708829439558
 29 0.0065968778069057238
 30 3.8013742639444016e-07
 31 -1.9648448944253882e-08
 32 1.054128815013405e-07
 33 3.336360918440584e-09
 34 -4.1433248526567823e-08
 35 5.260248085419814e-10
 36 -0.0013325713625223501
 37 0.0080659807620585364
 38 -0.0052642127641994276
 39 0.0015412896174480546
 40 -7.9678566935609891e-08
 41 -8.5338836691706277e-10
 42 1.0462902371756455e-09
 43 1.2037604632704479e-09
 44 -4.3175566004360899e-09
 45 -2.6988858834309655e-10
 46 -5.268786313808102e-05
 47 -0.00030965690831938775
 48 -0.00020137491668298195
 49 -7.7218151859896611e-05
 50 9.3231820635562291e-09
 51 3.1399614260421704e-06
 52 3.1387554915163207e-06
 53 -8.4536849020290343e-05
 54 -8.4534710758485203e-05
 55 2.1841715174624691e-06
 56 2.1842385204850654e-06
 57 -4.6722355717433717e-05
 58 -4.6733629773303142e-05
 59 -1.446858704980819e-07
 60 -1.4388906812747015e-07
 61 0.0077993873887584539
 62 0.007799741122607548
 63 -6.2951747438781333e-08
 64 -6.2202696820374756e-08
 65 -8.3241425055538901e-05
 66 -8.3194257863592434e-05
 67 2.5936959949582339e-09
 68 4.5658481127863748e-09
 69 4.1111741285598802e-09
 70 0.00022195970823111078
 71 2.9892733736759398e-05
 72 2.9896929364977513e-05
Sym= A
Ene= -10.257461960264324
Spin= Alpha
Occup= 2
 1 -2.6718541056725692e-06
 2 -6.0894344230909975e-05
 3 5.3285230639958658e-05
 4 6.5394365313838076e-06
 5 2.9968139217463529e-08
 6 -2.6246182462941192e-06
 7 5.5961413292492448e-05
 8 -4.1024805627586092e-05
 9 4.3437726365381374e-05
 10 -6.0071510522777723e-09
 11 -5.228904892173869e-05
 12 0.0051722184011656139
 13 -0.00029665125952378635
 14 0.0033852044239852308
 15 -9.6709872244224251e-08
 16 -2.8681714902504402e-07
 17 8.2029444156367457e-06
 18 -6.541696006154285e-06
 19 1.4125405574556826e-06
 20 2.5569605013685418e-10
 21 -0.9907853410451527
 22 -0.042728827549156093
 23 0.0023031949348445643
 24 -0.0047073743828708672
 25 3.620659085629423e-06
 26 -1.2763100411261608e-07
 27 8.7109190718710067e-08
 28 -1.393772291365114e-07
 29 -1.4374087463700502e-07
 30 3.1396661805367777e-11
 31 -0.0010998176715195651
 32 0.0081480380537406871
 33 0.0051992175465462717
 34 -0.0016771105622723267
 35 7.3584391923908579e-06
 36 -2.0691068267596202e-08
 37 9.8004516606406585e-08
 38 -8.4345642623051553e-09
 39 8.8471070181644906e-08
 40 3.656972341524599e-11
 41 -4.8358749751252483e-05
 42 -0.00027589736645510041
 43 0.00019288723059493994
 44 6.7764924583362668e-05
 45 -6.1902991223986131e-07
 46 -1.763683810107608e-09
 47 1.2063548311767175e-08
 48 1.1075966793033798e-09
 49 1.2726318606576248e-08
 50 -4.4043149899924494e-12
 51 -6.9477390561298769e-05
 52 -6.9573646856591911e-05
 53 6.562981613559421e-06
 54 6.5510576235036644e-06
 55 -9.3140555720079565e-05
 56 -9.3489027295341753e-05
 57 1.4332620953889149e-06
 58 1.4312288861645589e-06
 59 0.0081471188638328126
 60 0.0081482257096066532
 61 -2.4133659562962373e-07
 62 -2.4110290270176749e-07
 63 -5.6601445003526089e-05
 64 -6.6944824018745804e-05
 65 -2.9814398091847216e-08
 66 -2.9869272072640535e-08
 67 0.00021263903892619705
 68 1.3133555210766926e-05
 69 1.3195377249440154e-05
 70 7.431080559922032e-10
 71 5.8979884153681494e-09
 72 5.890211929315825e-09
Sym= A
Ene= -9.2539402684566152
Spin= Alpha
Occup= 2
 1 -5.5915528611132428e-05
 2 0.00016166399314700847
 3 -6.8026049030349769e-05
 4 -8.9440004060740985e-05
 5 -6.3456787420914291e-09
 6 -0.0013330822035247381
 7 -0.007065570452869414
 8 -0.0042419444452185921
 9 0.0018275836154671788
 10 8.2292696186039739e-08
 11 -0.00010864844767264487
 12 -9.6023115107448515e-05
 13 -4.1653194417258337e-05
 14 8.1870722637820623e-05
 15 4.5443793680098389e-10
 16 0.98950343120114348
 17 0.049051721622006689
 18 0.0023938031500714066
 19 -0.0010129207255986858
 20 -8.0348067102024736e-07
 21 1.5108953530075867e-06
 22 -1.1147368415254447e-05
 23 2.8601966025204335e-06
 24 7.8909056444072838e-06
 25 -4.0984590656092605e-10
 26 0.0010668265077128369
 27 -0.0083208685855836947
 28 -0.00017301060952249273
 29 -0.0055839903672784651
 30 1.0501676220170148e-07
 31 6.9492029431197921e-08
 32 1.8787085395402292e-07
 33 4.5794031799580319e-07
 34 1.6189430052430086e-07
 35 8.7520941483659434e-09
 36 4.2778133846264194e-05
 37 0.00020845548753577019
 38 -0.00012035705729617624
 39 -0.00010878270677264559
 40 -1.0014903989013379e-08
 41 2.6444241726930606e-08
 42 -1.4910296039483649e-07
 43 -1.1192948859564201e-07
 44 1.0410971569281384e-07
 45 -1.9351453243236798e-09
 46 2.5128041197530759e-05
 47 -0.00013685521170169086
 48 7.7676638634012474e-05
 49 -0.00010037351724468541
 50 5.1583309554237871e-10
 51 6.0107749644186135e-05
 52 6.0108171872148581e-05
 53 0.00014294806710102304
 54 0.00014296133634323326
 55 -8.3656105151052457e-06
 56 -8.3667898207514385e-06
 57 -0.010290992646878071
 58 -0.010290324482886998
 59 -7.0001120670631564e-07
 60 -6.9437465448026793e-07
 61 0.00011820453290897759
 62 0.00011822382819771937
 63 3.0215398505797908e-07
 64 2.8702161588884008e-07
 65 2.2726784640034409e-05
 66 2.2730134721355051e-05
 67 -3.3461677512332515e-08
 68 1.713838553496147e-10
 69 -2.5960751550324797e-09
 70 -1.9745969705289423e-05
 71 -6.4984963724507017e-06
 72 -6.4967765114679055e-06
Sym= A
Ene= -9.1598844853447119
Spin= Alpha
Occup= 2
 1 -0.0017685182480356998
 2 -0.007093012366714611
 3 0.0042543640261176827
 4 -0.0018125159705573513
 5 2.0899598023371244e-07
 6 -0.00010465070019390239
 7 0.00016315548891949853
 8 7.2739565501651199e-05
 9 9.2365494968653372e-05
 10 -2.0314630601235353e-08
 11 0.98948380423053006
 12 0.049147127549779401
 13 -0.0025052574860321801
 14 0.00081369598547944427
 15 -1.9637383487628516e-06
 16 0.00013637270400965879
 17 -8.5698445334667951e-05
 18 4.3305596450072051e-05
 19 -8.2860237665321156e-05
 20 1.2671782238421672e-09
 21 0.0012956677440431608
 22 -0.0082719553897568493
 23 0.00021129872423017448
 24 0.0055316222557071932
 25 3.0134469724297692e-07
 26 1.457669563484365e-06
 27 -1.3192192911017217e-05
 28 -3.0202969730646918e-06
 29 -9.2911292859626658e-06
 30 2.2982936830865393e-10
 31 4.2220354549985656e-05
 32 0.0002175310367296783
 33 0.00012737239856068505
 34 0.00011058619196245914
 35 -2.9257721263751399e-07
 36 7.8932075552734515e-08
 37 2.4951388045711854e-07
 38 -5.0195952460269078e-07
 39 -2.0454837206906711e-07
 40 -8.3401264797372794e-11
 41 2.5266964197218078e-05
 42 -0.00013851612245427587
 43 -7.7289282294851908e-05
 44 0.00010163657274684344
 45 1.2974213729852868e-07
 46 3.2963000300666179e-08
 47 -1.8874319218512622e-07
 48 1.3170638808331059e-07
 49 -1.3306377703642056e-07
 50 5.274869492785778e-12
 51 0.00014595839149805952
 52 0.00014599308485538018
 53 5.9947400030770093e-05
 54 5.9954487901904075e-05
 55 -0.010370389837149774
 56 -0.010368899038629441
 57 -1.0859635602248133e-05
 58 -1.0864982022056741e-05
 59 0.00011820128265534191
 60 0.00011810048599245754
 61 -6.4082505970425307e-07
 62 -6.4132043435028742e-07
 63 2.4058295773984493e-05
 64 2.412907577644622e-05
 65 3.0104553544766863e-07
 66 3.0124330409591477e-07
 67 -1.9264929623811263e-05
 68 -6.6578979284227791e-06
 69 -6.4680477094396227e-06
 70 -3.7895571651383811e-08
 71 -3.7587671738678087e-09
 72 -3.7323442668739035e-09
Sym= A
Ene= -8.9473853590672849
Spin= Alpha
Occup= 2
 1 0.015764497192271465
 2 0.0081194013032455242
 3 -3.2894352974037477e-05
 4 -0.0048268659329800236
 5 -3.8080741521479105e-08
 6 -0.9893571341946521
 7 -0.049161191874524141
 8 0.001159820519072173
 9 0.0016399675762234917
 10 3.26982479854375e-07
 11 -9.8336806122036394e-05
 12 -0.00031119714210078864
 13 -0.00019318523195242104
 14 -2.8232092835745598e-05
 15 2.768830440376309e-09
 16 -0.0028201688892240118
 17 0.007682051916038244
 18 -0.0048631271796755887
 19 0.0018458180826905575
 20 -3.627386492614255e-08
 21 -2.2025905944356161e-05
 22 0.00011017740733818612
 23 6.3481534461874711e-05
 24 -8.375111008194179e-05
 25 5.6196875281830753e-10
 26 -4.2627216742278581e-05
 27 -0.00018855872614291502
 28 -0.00012608309071481145
 29 -7.5162593826075264e-05
 30 1.198310300943406e-09
 31 -1.1126144747247366e-06
 32 1.1418409826799685e-05
 33 8.5911372547705506e-06
 34 1.3830493879561645e-06
 35 -1.2261383535198447e-08
 36 -2.2355129144512736e-05
 37 0.00012208535517427396
 38 -5.8880249918314212e-05
 39 0.00010334887015365536
 40 3.6104200707572999e-10
 41 -5.388087598312552e-08
 42 -5.8539965096032417e-07
 43 5.4478968055868271e-07
 44 5.2435465946500115e-07
 45 1.6538205269408541e-09
 46 -1.7056119264238778e-06
 47 1.5663962924014358e-05
 48 4.1324098931453659e-06
 49 9.6047050983727802e-06
 50 -1.1995801140740805e-10
 51 -0.00029137311126512314
 52 -0.00029138153144673065
 53 0.010437304261789383
 54 0.010437573308805022
 55 -4.3146080085142277e-05
 56 -4.3147773945847838e-05
 57 -9.4852555390644369e-05
 58 -9.4848030861321986e-05
 59 1.011855173261092e-05
 60 1.0116305491206234e-05
 61 -3.0578872060659651e-05
 62 -3.0577454569875612e-05
 63 1.4794156641385024e-09
 64 2.9703340482124113e-08
 65 9.5998072435531448e-06
 66 9.6000076206378612e-06
 67 3.3758890967058863e-07
 68 -2.4900389666154821e-07
 69 -2.4726256367922639e-07
 70 -1.281081849462812e-06
 71 -4.0427359245795219e-07
 72 -4.0440714739144239e-07
Sym= A
Ene= -8.9098033435273525
Spin= Alpha
Occup= 2
 1 -0.98938123559521385
 2 -0.048913118036303896
 3 -0.0013048188368740381
 4 -0.001512661093602187
 5 2.3308528281339639e-07
 6 -0.017246137597835332
 7 0.0065913715997168781
 8 8.9771865365510795e-05
 9 0.0049563723898211585
 10 -1.8801744575839927e-08
 11 -0.0032505335335744068
 12 0.0075624177546174468
 13 0.0047960555561935292
 14 -0.0018451939681564857
 15 -3.1042396456476572e-08
 16 -0.00015132254299638718
 17 -6.1161724605730133e-05
 18 3.4287044316336224e-05
 19 9.3809261142475953e-05
 20 1.1059226318878369e-09
 21 -4.7797900625355574e-05
 22 -0.00017828807376412195
 23 0.00012241017711095946
 24 7.0422707041564725e-05
 25 2.4128254464789124e-08
 26 -2.1232283871935875e-05
 27 0.00010793347859034026
 28 -6.8950345600383295e-05
 29 8.3932673018037238e-05
 30 -1.2691462512486979e-10
 31 -2.1700228399149785e-05
 32 0.00011895862443485989
 33 5.7207370668065777e-05
 34 -0.0001018619026671606
 35 -5.5308337278886239e-08
 36 -1.8902961886283626e-06
 37 1.570555508533791e-05
 38 -1.0609077902283548e-05
 39 1.9268951118416033e-06
 40 1.6315479816137179e-11
 41 -1.7383983163931499e-06
 42 1.5726166768327207e-05
 43 -3.9561186881786978e-06
 44 -9.7692946509448861e-06
 45 3.4282502680997856e-09
 46 -1.0949118721403917e-07
 47 -1.0207199340373126e-07
 48 -4.3272733561781213e-07
 49 -2.2272842123676612e-07
 50 -3.2925457484199591e-12
 51 0.01042259575066113
 52 0.010422803555150593
 53 5.6684772677263739e-05
 54 5.668314318452855e-05
 55 -9.1176220485668022e-05
 56 -9.1183617991848556e-05
 57 -4.3372479012875878e-05
 58 -4.3372859236370928e-05
 59 -3.422617994137153e-05
 60 -3.4310074330566891e-05
 61 9.350307859912893e-06
 62 9.3500521136415105e-06
 63 9.5784744282611037e-06
 64 9.6738094480484926e-06
 65 1.9527159950897665e-07
 66 1.9520950206156681e-07
 67 -1.287607897843164e-06
 68 -2.77393459888935e-07
 69 -2.7536634849412286e-07
 70 3.1131793561383486e-07
 71 -2.5712281149711802e-07
 72 -2.5712274992484296e-07
Sym= A
Ene= -1.4351949126556525
Spin= Alpha
Occup= 2
 1 -1.3336453040524443e-07
 2 -4.0166834302302924e-06
 3 1.9305896143339499e-06
 4 -2.4865266333657168e-07
 5 -1.7882274286535469e-11
 6 -1.1907680475117463e-07
 7 -1.6022218400755465e-05
 8 -5.4019303164214855e-06
 9 2.5765935362492831e-05
 10 -1.7751162235772415e-09
 11 1.1365607001010379e-09
 12 2.6628471762464004e-07
 13 4.6739633365131678e-07
 14 -3.1585892343137523e-07
 15 -6.3141097239054863e-10
 16 -0.0002646524848888103
 17 0.00023822457004226468
 18 8.1132798734741794e-05
 19 -7.1449592416318597e-05
 20 4.0002705012354021e-08
 21 -9.1424408894119624e-09
 22 8.1765784256564774e-08
 23 -1.9624122758439902e-07
 24 -1.8716011259008701e-07
 25 7.8236231890333818e-09
 26 -0.011126934039279612
 27 0.013789683243109765
 28 0.0022392356184116613
 29 -0.00415825716363976
 30 -1.8537669710769645e-07
 31 -6.4329935229342876e-08
 32 2.0676257698298434e-07
 33 -8.4897342177148172e-09
 34 -9.0893366479650323e-08
 35 3.0080672329920231e-08
 36 -0.12038586377329684
 37 0.33155919064221373
 38 0.024696242093188023
 39 -0.13733244930222543
 40 -3.5924814306238157e-06
 41 -1.1409587851764214e-08
 42 3.8757034649921761e-08
 43 -1.1845801699034327e-08
 44 -1.3012178933630679e-08
 45 -4.8946332828435072e-09
 46 -0.21838364679269179
 47 0.68709110040070209
 48 0.028276461312858228
 49 0.094144753094053915
 50 -7.1115250358382288e-06
 51 4.0738027840771154e-06
 52 4.0748764872046081e-06
 53 -1.4448834798758245e-05
 54 -1.4455054553816457e-05
 55 4.1343592715832118e-07
 56 4.1202505671658466e-07
 57 -9.0972747705825134e-05
 58 -9.0908566566048205e-05
 59 -1.0809156805995784e-07
 60 -8.9502293077565673e-08
 61 0.0029664287060971878
 62 0.0029662793205137592
 63 2.905114555068109e-08
 64 -3.4521964496899912e-08
 65 0.016590248393391085
 66 0.016588649746282103
 67 4.6822846020344241e-09
 68 3.0384333376144018e-09
 69 -2.9940976794227969e-09
 70 0.077158218082395369
 71 0.058639531765552574
 72 0.0586461205706236
Sym= A
Ene= -1.353851435601831
Spin= Alpha
Occup= 2
 1 -7.5082732097040295e-06
 2 7.5341520969071304e-06
 3 1.6773834096343518e-05
 4 4.5715650023986885e-05
 5 -5.7266489932903638e-07
 6 -1.0389237764876769e-06
 7 9.8554733084380355e-06
 8 1.1885135879781926e-06
 9 7.7769667531527118e-06
 10 5.0470883097004895e-08
 11 -0.00016748656929500491
 12 -0.00028553128965078719
 13 0.00022778980562738896
 14 -0.00022959320857935707
 15 2.9534061028612985e-06
 16 1.1194778259558322e-08
 17 -9.4421670465591164e-07
 18 -2.6089502344313689e-08
 19 1.3191255374090868e-07
 20 1.0364697145614612e-08
 21 -0.0090878064159563322
 22 0.011979530230024068
 23 -0.010675111663958597
 24 0.002213287526269897
 25 -1.1214961530340085e-05
 26 -8.3836900057615571e-08
 27 5.2513223219890397e-07
 28 2.6673138348986408e-07
 29 5.9250050452486647e-07
 30 -1.3179959089669416e-09
 31 -0.11188815100580114
 32 0.30089045307745477
 33 -0.049651762836417604
 34 0.12365684030863976
 35 -0.00098923929843608188
 36 -1.1592851359887475e-07
 37 4.2638151810936713e-07
 38 -6.5116502983523367e-08
 39 2.1101676372817062e-07
 40 -1.9446545447285906e-11
 41 -0.22210240130091416
 42 0.7006736509732272
 43 -0.057507041566905351
 44 -0.07305089553049518
 45 -0.00082508264614820372
 46 6.129735983465695e-08
 47 -1.982711536392017e-07
 48 2.9931254278846211e-08
 49 1.8505339494817065e-08
 50 -2.5641593630293232e-11
 51 -1.5865749941360637e-05
 52 -1.6216746339127864e-05
 53 2.6171799298014241e-06
 54 3.0211491223067037e-06
 55 -9.8588916357793613e-05
 56 -8.4134238886204686e-05
 57 7.2393466940482017e-07
 58 7.4350603265182618e-07
 59 0.0055582176945068867
 60 0.005566767729476025
 61 -3.195083349133692e-07
 62 -3.3290108255061221e-07
 63 0.019107961935933407
 64 0.018278309539388263
 65 -4.6891408586830028e-08
 66 -4.9180576859277807e-08
 67 0.095764180851603806
 68 0.061346196680465356
 69 0.061658403425197905
 70 -2.8966902504196004e-08
 71 -2.8698711491449702e-08
 72 -2.8516130528189083e-08
Sym= A
Ene= -1.1777970488035341
Spin= Alpha
Occup= 2
 1 -5.2454700012923017e-07
 2 -9.8617178803537739e-06
 3 9.7630068385061962e-06
 4 -1.0737018660692026e-05
 5 -5.088437667181842e-10
 6 2.3875489555038459e-06
 7 -0.00026476432402501495
 8 -0.00017300527742835194
 9 0.00010071769175086617
 10 4.036741583426828e-09
 11 1.3615031560975863e-07
 12 1.1488430675567619e-06
 13 1.9224328931860459e-06
 14 4.2866185084953351e-07
 15 -1.4936735254412741e-10
 16 -0.00083915554549533061
 17 0.0001037857896924706
 18 -0.0011269908360444806
 19 0.00040092491980576149
 20 1.4189402524080204e-07
 21 -1.6813181236662034e-07
 22 7.3376368041517832e-07
 23 -5.4133842207579764e-07
 24 3.1245705606821076e-07
 25 -1.0871050067344322e-08
 26 -0.025485920291712663
 27 0.041096214279682297
 28 0.0084885055800390657
 29 -0.013924293677748945
 30 -7.3731405526364861e-07
 31 -4.9051909533639419e-07
 32 1.6429131408730527e-06
 33 -1.206978004553768e-07
 34 -3.2015890276382818e-07
 35 5.0650812494245248e-08
 36 -0.1753383311393174
 37 0.5851106182335517
 38 0.050683643540181941
 39 -0.12754483338299602
 40 -6.2178635047145155e-06