[Molden Format]
[Title]
generated by GANSU
[Atoms] (Angs)
C 1 6 1.187 -0.429 0
C 2 6 0 0.555 0
O 3 8 -1.218 -0.204 0
H 4 1 -1.93 0.485 0
H 5 1 2.126 0.116 0
H 6 1 1.151 -1.062 0.881
H 7 1 1.151 -1.062 -0.881
H 8 1 0.063 1.203 0.883
H 9 1 0.063 1.203 -0.883
[GTO]
1 0
 s 3 1.00
    13.0451 0.535328
    3.53051 0.444635
    71.6168 0.154329
 s 3 1.00
    2.94125 -0.0999672
    0.683483 0.399513
    0.22229 0.700115
 p 3 1.00
    2.94125 0.155916
    0.683483 0.607684
    0.22229 0.391957

2 0
 s 3 1.00
    71.6168 0.154329
    3.53051 0.444635
    13.0451 0.535328
 s 3 1.00
    2.94125 -0.0999672
    0.683483 0.399513
    0.22229 0.700115
 p 3 1.00
    2.94125 0.155916
    0.683483 0.607684
    0.22229 0.391957

3 0
 s 3 1.00
    6.44361 0.444635
    23.8089 0.535328
    130.709 0.154329
 s 3 1.00
    1.1696 0.399513
    5.03315 -0.0999672
    0.380389 0.700115
 p 3 1.00
    0.380389 0.391957
    1.1696 0.607684
    5.03315 0.155916

4 0
 s 3 1.00
    0.168855 0.444635
    0.623914 0.535328
    3.42525 0.154329

5 0
 s 3 1.00
    0.168855 0.444635
    0.623914 0.535328
    3.42525 0.154329

6 0
 s 3 1.00
    0.168855 0.444635
    0.623914 0.535328
    3.42525 0.154329

7 0
 s 3 1.00
    3.42525 0.154329
    0.623914 0.535328
    0.168855 0.444635

8 0
 s 3 1.00
    3.42525 0.154329
    0.623914 0.535328
    0.168855 0.444635

9 0
 s 3 1.00
    3.42525 0.154329
    0.623914 0.535328
    0.168855 0.444635

[MO]
Sym= A
Ene= -20.2553
Spin= Alpha
Occup= 2
 1 -2.292617553480454e-05
 2 0.00038261140905512765
 3 -0.00021380405346408231
 4 -1.1930946616183584e-05
 5 3.0696391501518868e-16
 6 0.00052248121231718986
 7 -0.0042231051451162866
 8 0.0028009327906705233
 9 0.001882709106844803
 10 2.9511306000227726e-16
 11 0.99421798966941033
 12 0.02566037431598887
 13 0.0002166922042422084
 14 0.0029483621461025619
 15 2.5361915954790674e-16
 16 -0.0057115658509928596
 17 -8.138119349588171e-05
 18 -8.3026543640872595e-05
 19 -8.3026543640905555e-05
 20 0.00033877808010100848
 21 0.00033877808010083848
Sym= A
Ene= -11.088912937680922
Spin= Alpha
Occup= 2
 1 -0.0025734313029306373
 2 -0.0056460451786689023
 3 0.0027919166199959441
 4 -0.0022519516355897365
 5 9.4976423263024239e-17
 6 0.99216092730149452
 7 0.035732466105975851
 8 0.00049696866838912202
 9 0.00049845677795266928
 10 -2.000578301605396e-17
 11 0.00042907077908131458
 12 -0.004298719605854995
 13 -0.001940436637943576
 14 -0.00090072398370389392
 15 -5.5446383037217202e-17
 16 -0.0010708236159914953
 17 7.6653508289849392e-05
 18 1.7774983176647846e-05
 19 1.777498317706319e-05
 20 -0.0069024930335196844
 21 -0.0069024930335195769
Sym= A
Ene= -11.038263406114718
Spin= Alpha
Occup= 2
 1 0.99193964460573303
 2 0.037822546173820755
 3 0.00023700453984416443
 4 -0.00016574420370070363
 5 2.1568175089302445e-17
 6 0.0035860416081117926
 7 -0.0055305958269405995
 8 -0.0027465214531750826
 9 0.0023324727046044351
 10 -2.853946505903548e-17
 11 -4.0151319990961107e-06
 12 0.00022382659681423109
 13 2.0774825962282976e-05
 14 0.00010142667998730988
 15 -3.2723292251580777e-17
 16 -0.00011551029580749747
 17 -0.0070361968731594438
 18 -0.0070123498261102733
 19 -0.0070123498261102325
 20 4.1453083750718814e-05
 21 4.1453083750884914e-05
Sym= A
Ene= -1.2764465861602436
Spin= Alpha
Occup= 2
 1 -0.018941933132586804
 2 0.045092414996091602
 3 -0.016873297439631289
 4 0.0077734510538414433
 5 1.4942859210500398e-16
 6 -0.084633527829550664
 7 0.21636609614093688
 8 -0.072997185276113222
 9 -0.040168380176997774
 10 9.6876877970746492e-16
 11 -0.22315132936913407
 12 0.80233407052644834
 13 0.014039326257807315
 14 0.08448192818164936
 15 4.5235415390811305e-16
 16 0.14392124509368337
 17 0.0053589566816917471
 18 0.0078488451939966297
 19 0.0078488451939950875
 20 0.027497593029691184
 21 0.027497593029690827
Sym= A
Ene= -0.96322920038296089
Spin= Alpha
Occup= 2
 1 -0.18160573868218827
 2 0.50529167819057197
 3 -0.02587671205193938
 4 0.032692506252582153
 5 7.0043417464083721e-16
 6 -0.1302463387110625
 7 0.36992400424359384
 8 0.10078088751722912
 9 -0.016269648739741623
 10 1.3203490440686248e-17
 11 0.060279448481754122
 12 -0.24235157291399226
 13 0.073119145033072458
 14 -0.0083504806991916061
 15 -7.9808202743626711e-17
 16 -0.09668940982358519
 17 0.1345002344935933
 18 0.12588850037016011
 19 0.12588850037016025
 20 0.09742763883190661
 21 0.097427638831906319
Sym= A
Ene= -0.79452424922855613
Spin= Alpha
Occup= 2
 1 0.12274209526429414
 2 -0.37275654288344989
 3 -0.093919451850559846
 4 0.097958181242074741
 5 -6.1245258186935447e-16
 6 -0.1551619641692088
 7 0.48875907833267412
 8 -0.029628993434629824
 9 0.13547752233474702
 10 1.174120898766448e-16
 11 0.052262678812440552
 12 -0.22653143030582329
 13 0.10813984835634813
 14 0.053358602970548223
 15 -1.8476006841007772e-16
 16 -0.098009074667486734
 17 -0.14414752140190046
 18 -0.15809823470701057
 19 -0.15809823470700998
 20 0.20937599966086121
 21 0.20937599966086176
Sym= A
Ene= -0.61378411345156525
Spin= Alpha
Occup= 2
 1 0.011774773219152929
 2 -0.036182926697441914
 3 -0.20928481187854212
 4 -0.083717061064722986
 5 -1.5272740826116423e-15
 6 -0.016753889225182388
 7 0.086350644945475216
 8 -0.088727670451573051
 9 -0.29810803143946962
 10 4.8656475821689282e-15
 11 -0.025332845471441788
 12 0.12963239001382648
 13 0.32318655839116106
 14 -0.14812798802429347
 15 -2.4411970366592765e-14
 16 -0.36492731609300549
 17 -0.21848681128247505
 18 0.036391181468798509
 19 0.036391181468798883
 20 -0.13623250416598662
 21 -0.13623250416599747
Sym= A
Ene= -0.60149896483841769
Spin= Alpha
Occup= 2
 1 4.4608619147188164e-16
 2 -1.650102241444507e-15
 3 9.9212381505091795e-16
 4 1.3841012386203214e-15
 5 0.26307115306610629
 6 -1.3377363817223834e-16
 7 9.1180996827537782e-16
 8 3.7601880036498184e-15
 9 -4.1753447849009542e-15
 10 0.38701396964951168
 11 -1.1941517715543867e-15
 12 6.4929242278007219e-15
 13 -1.1208647507701544e-15
 14 -5.7948395911175029e-15
 15 0.20379996561982169
 16 -8.312819994781529e-15
 17 5.8978486241940268e-15
 18 0.19855869103787815
 19 -0.1985586910378892
 20 0.28734920788209489
 21 -0.28734920788209334
Sym= A
Ene= -0.51419766535137301
Spin= Alpha
Occup= 2
 1 -0.001212660578183591
 2 0.00015929869727280643
 3 -0.10100570699497777
 4 -0.41772258703730347
 5 1.5898175538617579e-14
 6 -0.0027712615313227862
 7 0.0040994920743181043
 8 -0.1843482438874218
 9 0.13939305445239222
 10 7.6351330106246928e-16
 11 0.049607350681764216
 12 -0.24709156084431463
 13 -0.027435087801228723
 14 0.21915465682050639
 15 -1.8148495243375757e-15
 16 0.1441059174168616
 17 -0.32939061806791237
 18 0.26182833635094999
 19 0.26182833635092739
 20 0.076406396083761458
 21 0.076406396083768299
Sym= A
Ene= -0.48598134629246081
Spin= Alpha
Occup= 2
 1 -6.7320931999139165e-17
 2 7.2663990775066728e-16
 3 6.2189829855448506e-15
 4 1.4016141199180625e-14
 5 0.41178174838792375
 6 1.1044490829632813e-16
 7 9.8327893324371448e-18
 8 8.7290953952355356e-16
 9 -1.6934301961413133e-15
 10 -0.23662204174750889
 11 -3.0097152146727651e-16
 12 1.114596674049507e-15
 13 3.6774173630054056e-15
 14 -7.2638824978044865e-16
 15 -0.23167847317936199
 16 1.2411264503420686e-15
 17 1.1170634347749775e-14
 18 0.37366634409443295
 19 -0.37366634409444693
 20 -0.20936654797849186
 21 0.20936654797848425
Sym= A
Ene= -0.47215007924483043
Spin= Alpha
Occup= 2
 1 -0.01400692260194113
 2 0.057519255422496515
 3 -0.3854239839513916
 4 0.048577404898892444
 5 1.8910638781333336e-14
 6 -0.0066858460578400536
 7 -0.0016570175245802473
 8 0.40568370998639425
 9 -0.059359285537052116
 10 -4.2777058532370647e-14
 11 -0.0099287107146586347
 12 0.050463758493354702
 13 -0.29332983979410604
 14 -0.1543084974298248
 15 1.3701907794173706e-13
 16 0.19271623626316933
 17 -0.33743219900618954
 18 0.013515182054883539
 19 0.013515182054857846
 20 0.0034582249634059832
 21 0.0034582249635173017
Sym= A
Ene= -0.40796799430205838
Spin= Alpha
Occup= 2
 1 0.022945479566369571
 2 -0.09574807739716315
 3 0.13722849460289344
 4 -0.20292971287947037
 5 -1.1971225575425088e-14
 6 0.022866128407616287
 7 -0.10196222884658902
 8 0.024740059503127701
 9 0.30377757121013493
 10 3.618668403742534e-14
 11 -0.077076516091171832
 12 0.40305966096072005
 13 -0.035166037084585149
 14 -0.47995558083537793
 15 -1.5355717567346511e-13
 16 -0.28291427550427617
 17 -0.016611131866210944
 18 0.10568368444403997
 19 0.10568368444406245
 20 0.20790570464335711
 21 0.20790570464324187
Sym= A
Ene= -0.35326676259279272
Spin= Alpha
Occup= 2
 1 8.5949073113546268e-15
 2 -3.5274420998234141e-14
 3 1.0685841229450802e-13
 4 -6.33701571321856e-14
 5 0.046530937054982978
 6 5.5283770257507604e-15
 7 -1.6731106138610246e-14
 8 -7.1807254978825882e-14
 9 7.059999090830535e-14
 10 -0.17098083951479279
 11 -1.6341947022400752e-14
 12 8.5745569236247367e-14
 13 6.7805093818113354e-14
 14 -7.9556829305735691e-14
 15 0.6745616921446409
 16 -1.1164740332007435e-13
 17 5.9235450153985365e-14
 18 0.071211672443774521
 19 -0.071211672443737425
 20 -0.27723474380337132
 21 0.27723474380345053
Sym= A
Ene= 0.55982492081140856
Spin= Alpha
Occup= 0
 1 -0.013468355414623918
 2 0.073495738035918634
 3 0.15546934260470921
 4 0.21117171306970375
 5 4.0926284792519444e-15
 6 0.034242280998610833
 7 -0.12261688380796172
 8 0.43618867366197273
 9 0.41022779932965986
 10 -4.6826144295918747e-15
 11 -0.11456828225342071
 12 0.72031111785940605
 13 0.059326956715331058
 14 0.47675568397086276
 15 -1.1055592766198713e-15
 16 -0.69695487545846413
 17 -0.4075318188394183
 18 0.16844282707174107
 19 0.16844282707174849
 20 -0.17725491524493006
 21 -0.17725491524493875
Sym= A
Ene= 0.64472672824730271
Spin= Alpha
Occup= 0
 1 -0.079239788837001501
 2 0.45828901214765727
 3 -0.51550179656389117
 4 0.26085361276973523
 5 -4.8743131956374206e-14
 6 -0.007812755161118427
 7 0.034386621547857647
 8 -0.70365366543582764
 9 0.33723770285052174
 10 -9.7352465160445177e-15
 11 -0.0078225741601221071
 12 0.070112732126933808
 13 -0.43106161966127476
 14 0.002863497848468561
 15 6.5784415402726597e-15
 16 -0.56548331688979647
 17 0.17085069769398717
 18 -0.075388249971097485
 19 -0.075388249971191645
 20 -0.19583613041891654
 21 -0.1958361304189358
Sym= A
Ene= 0.64573992121119217
Spin= Alpha
Occup= 0
 1 -1.8577333265433717e-14
 2 1.1234785793421592e-13
 3 4.2031601694193058e-16
 4 1.9359310252460363e-13
 5 0.56102724339194643
 6 -7.8641959153844121e-15
 7 6.1515899347858843e-14
 8 -8.9899389810289009e-14
 9 2.0319653331203268e-13
 10 0.6666376512501716
 11 1.2613026430105353e-14
 12 -8.4228232042004623e-14
 13 9.9540206935880154e-14
 14 -9.400240709214551e-14
 15 -0.087900154197775665
 16 1.8303214571760742e-13
 17 -1.6349323644614981e-13
 18 -0.58037971535001109
 19 0.58037971535017041
 20 -0.65145311623810054
 21 0.65145311623779001
Sym= A
Ene= 0.69853789365109142
Spin= Alpha
Occup= 0
 1 -0.036103102149434622
 2 0.20807800846877769
 3 -0.06692011403957146
 4 0.6467170160381851
 5 -1.8985787143811461e-13
 6 0.042912634605824937
 7 -0.21909307235876965
 8 -0.20234510396288019
 9 0.5095300069871711
 10 -2.0306839148029813e-13
 11 0.030650951247116674
 12 -0.21175517977842956
 13 0.41311982092620303
 14 -0.23992102469221749
 15 3.026551057365553e-14
 16 0.62613967681042737
 17 -0.42109768230345096
 18 0.33019065631734051
 19 0.33019065631695166
 20 -0.2295438845045068
 21 -0.22954388450491545
Sym= A
Ene= 0.705099307608551
Spin= Alpha
Occup= 0
 1 -0.034769276018364249
 2 0.25396319270817463
 3 0.55756898915890818
 4 -0.17147599977245098
 5 -5.8227364755222882e-14
 6 -0.21420275883459799
 7 1.2952049020781029
 8 -0.0036021212503054368
 9 0.11976037924897458
 10 -5.8729357717268877e-14
 11 0.039330874026627723
 12 -0.24204119002221333
 13 -0.20807042216724328
 14 -0.17541563559976306
 15 7.4832397756380857e-15
 16 0.040316178600888042
 17 -0.51251466615152941
 18 -0.17004891551996207
 19 -0.17004891552008222
 20 -0.65628860809159262
 21 -0.65628860809171452
Sym= A
Ene= 0.76308927224819467
Spin= Alpha
Occup= 0
 1 0.2266803055769129
 2 -1.4475215867674891
 3 0.020935635833549487
 4 0.31344042019050838
 5 -1.0878082914296178e-13
 6 -0.096280363799837398
 7 0.55997008513989133
 8 0.023674720329373389
 9 -0.20163847461996579
 10 1.0239227289809408e-13
 11 0.01703434581988875
 12 -0.10153316159101278
 13 -0.21532574456251191
 14 -0.021706494803741309
 15 -1.2147695592622438e-14
 16 -0.12307602413567224
 17 0.42116112996769928
 18 0.79345339823075478
 19 0.79345339823057304
 20 -0.16109399155458232
 21 -0.1610939915544165
Sym= A
Ene= 0.77432120146566796
Spin= Alpha
Occup= 0
 1 -0.056150384205986795
 2 0.35957287335953481
 3 0.52987695454430117
 4 0.483106842297436
 5 -2.3006768128052604e-13
 6 0.057877390349212215
 7 -0.41263124770829207
 8 -0.31303404055165934
 9 -0.54581408823466848
 10 2.2755181056237835e-13
 11 0.012973675661909458
 12 -0.082503399068775185
 13 -0.24832182430955427
 14 -0.0087260654963784122
 15 -2.8148166573127189e-14
 16 -0.20037891698544708
 17 -0.86946386471249526
 18 0.14702611774702989
 19 0.14702611774664884
 20 0.47964467472682448
 21 0.47964467472719385
Sym= A
Ene= 0.77812320163840942
Spin= Alpha
Occup= 0
 1 1.2545613585340484e-14
 2 -8.0686238036464373e-14
 3 1.5792741511619011e-13
 4 2.1054218706329888e-13
 5 0.76806358526512952
 6 3.0696827978467329e-15
 7 -4.1269063241202623e-14
 8 -1.2590604034112769e-13
 9 -1.8515905176545722e-13
 10 -0.68100493151492347
 11 7.4676723487323349e-15
 12 -4.581574998564871e-14
 13 -1.1712673798203964e-13
 14 -1.3875918526135958e-14
 15 0.093068639426294883
 16 -8.9283513559005446e-14
 17 -2.1070078865834402e-13
 18 -0.64184729724359402
 19 0.64184729724391765
 20 0.53672318935670749
 21 -0.53672318935647489
