[Molden Format]
[Title]
generated by GANSU
[Atoms] (Angs)
C 1 6 0 0 0.653
C 2 6 0 0 -0.653
H 3 1 0 0.916 1.229
H 4 1 0 -0.916 1.229
H 5 1 0 -0.916 -1.229
H 6 1 0 0.916 -1.229
[GTO]
1 0
 s 3 1.00
    13.0451 0.535328
    3.53051 0.444635
    71.6168 0.154329
 s 3 1.00
    2.94125 -0.0999672
    0.683483 0.399513
    0.22229 0.700115
 p 3 1.00
    0.22229 0.391957
    0.683483 0.607684
    2.94125 0.155916

2 0
 s 3 1.00
    71.6168 0.154329
    13.0451 0.535328
    3.53051 0.444635
 s 3 1.00
    2.94125 -0.0999672
    0.22229 0.700115
    0.683483 0.399513
 p 3 1.00
    0.22229 0.391957
    0.683483 0.607684
    2.94125 0.155916

3 0
 s 3 1.00
    3.42525 0.154329
    0.623914 0.535328
    0.168855 0.444635

4 0
 s 3 1.00
    3.42525 0.154329
    0.623914 0.535328
    0.168855 0.444635

5 0
 s 3 1.00
    0.168855 0.444635
    0.623914 0.535328
    3.42525 0.154329

6 0
 s 3 1.00
    0.168855 0.444635
    3.42525 0.154329
    0.623914 0.535328

[MO]
Sym= A
Ene= -11.0217
Spin= Alpha
Occup= 2
 1 0.70178364241596047
 2 0.020013204201919096
 3 -1.2534981985494992e-16
 4 2.1342444802033052e-16
 5 0.0017390717947195964
 6 0.70178364242636937
 7 0.02001320420238669
 8 1.5711299948746887e-16
 9 -2.3012188435309704e-17
 10 -0.0017390717946623867
 11 -0.0047490852420914416
 12 -0.0047490852420911476
 13 -0.0047490852421634448
 14 -0.0047490852421634595
Sym= A
Ene= -11.020670415269729
Spin= Alpha
Occup= 2
 1 -0.70144573334061999
 2 -0.031598021322086937
 3 -1.0728569626219023e-16
 4 2.3710191084704886e-16
 5 0.0038500309415282477
 6 0.70144573333020521
 7 0.031598021321789571
 8 1.8371435693347102e-16
 9 1.1172156609546156e-16
 10 0.0038500309415542794
 11 0.00492135677142563
 12 0.0049213567714258728
 13 -0.0049213567713549304
 14 -0.0049213567713550805
Sym= A
Ene= -0.98765073869251663
Spin= Alpha
Occup= 2
 1 0.17952654957329878
 2 -0.46803935433827221
 3 -2.9172035881584328e-16
 4 1.0610006374292117e-17
 5 0.10194835301428072
 6 0.17952654957330352
 7 -0.46803935433829047
 8 -2.8184930155733268e-16
 9 -1.2369981541623713e-16
 10 -0.10194835301427817
 11 -0.11194990199884275
 12 -0.11194990199884357
 13 -0.11194990199884677
 14 -0.11194990199884712
Sym= A
Ene= -0.74561257831844385
Spin= Alpha
Occup= 2
 1 -0.13563956367481525
 2 0.41009107496964381
 3 -9.0973767894042658e-16
 4 1.2825659558442214e-15
 5 0.17340197602576513
 6 0.13563956367481117
 7 -0.41009107496963343
 8 -1.2876367455376292e-15
 9 -4.8228177693174079e-16
 10 0.17340197602575305
 11 0.2235962843800004
 12 0.22359628437999904
 13 -0.22359628437998638
 14 -0.22359628437998838
Sym= A
Ene= -0.60563655807557126
Spin= Alpha
Occup= 2
 1 2.4372227283730361e-17
 2 -6.0681874140758566e-17
 3 6.0538314961279069e-16
 4 0.33846900576878469
 5 6.6371609374977584e-16
 6 -1.7960700384905679e-16
 7 5.6526147438161782e-16
 8 1.4972707935907596e-15
 9 0.33846900576880723
 10 -6.3489470579649058e-17
 11 0.25657138987015876
 12 -0.25657138987015976
 13 -0.25657138987017897
 14 0.25657138987017969
Sym= A
Ene= -0.54011965414640084
Spin= Alpha
Occup= 2
 1 0.014879102110276193
 2 -0.016810062967481731
 3 -1.0063201179259479e-15
 4 1.2969874436133139e-15
 5 0.42640103369566906
 6 0.0148791021102717
 7 -0.016810062967471028
 8 -9.8846507837259925e-16
 9 -8.4818761458596815e-16
 10 -0.42640103369568039
 11 0.21701618268515271
 12 0.2170161826851521
 13 0.21701618268516132
 14 0.2170161826851594
Sym= A
Ene= -0.45804562462949105
Spin= Alpha
Occup= 2
 1 1.1967808069640538e-16
 2 -1.7519578961959491e-16
 3 -1.6794525191184448e-15
 4 0.33548300999539116
 5 -1.0532216444142945e-15
 6 -4.1938399079451442e-16
 7 1.2151941395491963e-15
 8 -1.7750016605413102e-15
 9 -0.33548300999537117
 10 5.4105826396972998e-16
 11 0.35059577741753567
 12 -0.35059577741753845
 13 0.35059577741752135
 14 -0.35059577741752096
Sym= A
Ene= -0.3355146387691178
Spin= Alpha
Occup= 2
 1 1.2951866315545208e-16
 2 -3.2783938077768869e-16
 3 -0.538960411283121
 4 -2.8738123573297299e-16
 5 -1.6548796641867827e-15
 6 -3.2759210833330008e-16
 7 8.3002305764624778e-16
 8 -0.5389604112831301
 9 1.4998470574351685e-15
 10 -7.4174898208150794e-17
 11 -1.3862113833570481e-15
 12 4.1015533783832962e-16
 13 -1.6674606422535594e-15
 14 1.4158983068544827e-15
Sym= A
Ene= 0.32832094840938908
Spin= Alpha
Occup= 0
 1 4.2378440641953473e-17
 2 -4.2809324342099864e-16
 3 0.69725764510092159
 4 1.0662858989303753e-16
 5 1.2203512844051852e-16
 6 -3.1135476032347064e-17
 7 2.4338068508900579e-16
 8 -0.69725764510091504
 9 2.0578382730562451e-16
 10 3.8651470321544501e-16
 11 -1.8575656962938985e-16
 12 -3.1891206238978933e-17
 13 3.35303534401571e-16
 14 1.8111593429436204e-16
Sym= A
Ene= 0.6188142194635845
Spin= Alpha
Occup= 0
 1 9.7655529043391461e-16
 2 -2.9727145884232316e-15
 3 -3.7409912726693525e-16
 4 0.59551131423876014
 5 -4.6009557427773817e-15
 6 7.9565595323510283e-16
 7 -2.8682981472403058e-15
 8 1.9328874382397786e-16
 9 0.59551131423879611
 10 -1.4448863576595106e-15
 11 -0.62628132636965517
 12 0.62628132636966305
 13 0.62628132636968692
 14 -0.62628132636968614
Sym= A
Ene= 0.69963267007752183
Spin= Alpha
Occup= 0
 1 -0.12330960405757742
 2 0.82705852238352695
 3 1.4367651877072427e-16
 4 1.2787684017544929e-15
 5 0.44427556559936943
 6 -0.12330960405757692
 7 0.82705852238351918
 8 -5.273407026287615e-16
 9 2.5630237742085525e-15
 10 -0.44427556559939513
 11 -0.63123902686642708
 12 -0.63123902686642364
 13 -0.63123902686643496
 14 -0.63123902686644007
Sym= A
Ene= 0.70348377042414367
Spin= Alpha
Occup= 0
 1 0.16747681707753917
 2 -1.0556153119310718
 3 1.0050391173525189e-15
 4 -1.4401764948766315e-15
 5 -0.19648246961102114
 6 -0.16747681707753662
 7 1.0556153119310574
 8 -1.21771903396659e-15
 9 -1.380018054335921e-15
 10 -0.19648246961101451
 11 0.6462900629219579
 12 0.64629006292195423
 13 -0.64629006292194824
 14 -0.64629006292194535
Sym= A
Ene= 0.94771532492251453
Spin= Alpha
Occup= 0
 1 -1.5804512464669941e-16
 2 1.2670647213728817e-15
 3 1.664620901074087e-16
 4 0.81734975855847669
 5 -5.6615864745906626e-16
 6 1.6748899303303775e-17
 7 -6.3506917863021656e-17
 8 3.8074127819892935e-16
 9 -0.81734975855844805
 10 -1.7111511033053666e-15
 11 -0.61234343435417793
 12 0.61234343435417837
 13 -0.61234343435415128
 14 0.61234343435414917
Sym= A
Ene= 1.0278570258163955
Spin= Alpha
Occup= 0
 1 -0.11592941760805719
 2 0.93062735210367942
 3 7.4245767316097044e-17
 4 -3.2273221390613902e-15
 5 -1.0056759449111596
 6 0.11592941760805954
 7 -0.93062735210369729
 8 -8.2302892622084003e-16
 9 -6.7234507130296616e-16
 10 -1.0056759449111468
 11 0.11708887128338342
 12 0.11708887128337782
 13 -0.11708887128336859
 14 -0.11708887128336583
