[Molden Format]
[Title]
generated by GANSU
[Atoms] (Angs)
O 1 8 0 0 0.683
C 2 6 0 0 -0.534
H 3 1 0 0.926 -1.129
H 4 1 0 -0.926 -1.129
[GTO]
1 0
 s 3 1.00
    23.8089 0.535328
    6.44361 0.444635
    130.709 0.154329
 s 3 1.00
    5.03315 -0.0999672
    1.1696 0.399513
    0.380389 0.700115
 p 3 1.00
    0.380389 0.391957
    1.1696 0.607684
    5.03315 0.155916

2 0
 s 3 1.00
    71.6168 0.154329
    13.0451 0.535328
    3.53051 0.444635
 s 3 1.00
    2.94125 -0.0999672
    0.22229 0.700115
    0.683483 0.399513
 p 3 1.00
    2.94125 0.155916
    0.683483 0.607684
    0.22229 0.391957

3 0
 s 3 1.00
    3.42525 0.154329
    0.623914 0.535328
    0.168855 0.444635

4 0
 s 3 1.00
    3.42525 0.154329
    0.623914 0.535328
    0.168855 0.444635

[MO]
Sym= A
Ene= -20.3128
Spin= Alpha
Occup= 2
 1 0.99428871295543231
 2 0.025926422534716109
 3 4.036722517404572e-17
 4 -4.1020944781174433e-16
 5 -0.0041879195329436467
 6 0.00052538710745847191
 7 -0.0071737575331571836
 8 4.685471948818763e-17
 9 -9.9317414817379742e-16
 10 -0.0053655658383565995
 11 0.00019124752169518501
 12 0.00019124752169434917
Sym= A
Ene= -11.124936985442526
Spin= Alpha
Occup= 2
 1 -0.00013098967881374748
 2 0.0057098090975874621
 3 -5.563713883106845e-17
 4 -6.5263946368230212e-16
 5 -0.0012248038307741077
 6 -0.99262379000815326
 7 -0.032909717801102516
 8 6.9947500406628672e-17
 9 -1.6216420529068685e-15
 10 -0.00043584456682488148
 11 0.0065170330280962903
 12 0.0065170330280950733
Sym= A
Ene= -1.3372965855182724
Spin= Alpha
Occup= 2
 1 0.21937424339386202
 2 -0.76908841947835949
 3 -2.2930732184470011e-16
 4 8.6983509617577533e-16
 5 0.12681209409988334
 6 0.12251122828613728
 7 -0.27715395507559715
 8 -3.5963471369968569e-16
 9 1.0724482517033114e-15
 10 -0.13446202833700269
 11 -0.031792672168548648
 12 -0.03179267216854853
Sym= A
Ene= -0.80800435337654675
Spin= Alpha
Occup= 2
 1 -0.0988313663950217
 2 0.4290640317120441
 3 -2.0482903373415069e-16
 4 4.4385099110116144e-16
 5 0.12263328097342534
 6 0.18563924499905565
 7 -0.57724675362905653
 8 -8.5697151334566621e-16
 9 -1.8253659001663336e-15
 10 0.19296459630079901
 11 -0.26458242542821986
 12 -0.26458242542822225
Sym= A
Ene= -0.63305995089802525
Spin= Alpha
Occup= 2
 1 -6.4899899077249458e-16
 2 3.3873291178727556e-15
 3 -7.2659652476082856e-16
 4 0.32947751157493299
 5 2.1378939602232313e-15
 6 -1.4204223584557308e-16
 7 1.4808671066542536e-16
 8 -6.4110137693320369e-16
 9 0.45476744288547621
 10 -2.1354119519132478e-15
 11 0.30040145429709747
 12 -0.30040145429709775
Sym= A
Ene= -0.5455333614632516
Spin= Alpha
Occup= 2
 1 0.093799268932903773
 2 -0.49902712321244375
 3 1.3018247405201331e-15
 4 2.8853211224239056e-15
 5 -0.50473128888026786
 6 -0.033041277427460825
 7 0.10694384818272348
 8 -1.7850588842724534e-15
 9 -1.4545218903238949e-15
 10 0.38169670390438182
 11 -0.1588676633748182
 12 -0.15886766337482838
Sym= A
Ene= -0.44307392692844932
Spin= Alpha
Occup= 2
 1 1.3617287737590754e-17
 2 -3.6766237082952083e-17
 3 0.50393067809327008
 4 -9.386769841904917e-16
 5 -2.6369938740776126e-17
 6 1.8515179168449404e-16
 7 -5.5644714033539942e-16
 8 0.51978384368576314
 9 1.3287845246436207e-15
 10 1.9953318792882085e-16
 11 3.8186524914047002e-16
 12 -8.6766288730412984e-16
Sym= A
Ene= -0.35452090302739958
Spin= Alpha
Occup= 2
 1 -2.7695901373260116e-18
 2 2.3288327813077629e-16
 3 6.5365331636825023e-16
 4 0.6489014549853811
 5 -1.526535959424903e-16
 6 -1.4370853681377626e-18
 7 -1.886937223969056e-16
 8 1.0855948943223269e-15
 9 -0.15519009835082678
 10 1.1028034276856783e-16
 11 -0.35885432250041982
 12 0.35885432250042015
Sym= A
Ene= 0.28186559631473873
Spin= Alpha
Occup= 0
 1 1.9909828080461745e-16
 2 -1.0017793273261362e-15
 3 -0.57214548714920499
 4 -2.1896424076224874e-16
 5 -8.9928730837193561e-16
 6 5.8660013766116858e-17
 7 -6.3457278212279728e-17
 8 0.70017269481225775
 9 -2.1802971797926612e-17
 10 8.2783655358322947e-16
 11 -6.1769768450911294e-16
 12 -5.2385580646504719e-16
Sym= A
Ene= 0.62937573718630113
Spin= Alpha
Occup= 0
 1 -0.028129792719718015
 2 0.16169763051524355
 3 -1.1354830268538389e-16
 4 5.7702061223388583e-17
 5 -0.18368251372202243
 6 0.20810889933304605
 7 -1.3043187241724254
 8 8.3217096473999363e-17
 9 -9.0048909220708937e-16
 10 0.37934505653987532
 11 0.88977681631625605
 12 0.88977681631625494
Sym= A
Ene= 0.73512770914380732
Spin= Alpha
Occup= 0
 1 4.308437278494344e-16
 2 -1.9790983036493404e-15
 3 2.7400015834579279e-16
 4 -0.2373102429509788
 5 -2.1615914279635818e-15
 6 3.1358504605530926e-16
 7 -1.0633623111537948e-15
 8 8.9419948998138025e-17
 9 0.97990032310360631
 10 2.3742024126635397e-15
 11 -0.84057313802733147
 12 0.84057313802733002
Sym= A
Ene= 0.9124942396915402
Spin= Alpha
Occup= 0
 1 0.11572817404444519
 2 -0.86325558043166739
 3 1.7925375051646849e-16
 4 -1.9098890268888086e-16
 5 0.68876866900771172
 6 -0.094694559230374828
 7 0.63059601353280559
 8 -5.2427353417831206e-17
 9 -4.4355753489413162e-16
 10 1.0004272585968355
 11 0.15509498452065101
 12 0.15509498452065046
