[Molden Format]
[Title]
generated by GANSU
[Atoms] (Angs)
O 1 8 25.0904 -11.5404 -0.0795
O 2 8 17.4213 -12.7205 0.0854
O 3 8 26.1991 -12.6684 0.0803
O 4 8 17.7258 -14.1698 -0.0774
N 5 7 24.8031 -16.5474 0.0466
C 6 6 22.0263 -14.8319 -0.0565
C 7 6 24.3491 -15.0351 -0.0357
C 8 6 20.7382 -13.9367 0.0338
C 9 6 25.3157 -13.0022 -0.0035
C 10 6 18.4996 -13.6345 0.0065
H 11 1 21.404 -16.3456 -0.0783
H 12 1 21.8063 -13.8605 -0.1267
H 13 1 25.1154 -15.5427 -0.1084
H 14 1 20.812 -14.9607 0.1026
H 15 1 21.3485 -12.4288 0.0566
H 16 1 26.3532 -16.7702 0.0514
H 17 1 24.1844 -17.9336 0.0263
H 18 1 25.7121 -10.227 -0.0585
H 19 1 15.9668 -12.5414 0.0668
[GTO]
1 0
 s 3 1.00
    23.8089 0.535328
    6.44361 0.444635
    130.709 0.154329
 s 3 1.00
    5.03315 -0.0999672
    1.1696 0.399513
    0.380389 0.700115
 p 3 1.00
    0.380389 0.391957
    1.1696 0.607684
    5.03315 0.155916

2 0
 s 3 1.00
    130.709 0.154329
    6.44361 0.444635
    23.8089 0.535328
 s 3 1.00
    5.03315 -0.0999672
    1.1696 0.399513
    0.380389 0.700115
 p 3 1.00
    1.1696 0.607684
    0.380389 0.391957
    5.03315 0.155916

3 0
 s 3 1.00
    6.44361 0.444635
    23.8089 0.535328
    130.709 0.154329
 s 3 1.00
    5.03315 -0.0999672
    1.1696 0.399513
    0.380389 0.700115
 p 3 1.00
    5.03315 0.155916
    1.1696 0.607684
    0.380389 0.391957

4 0
 s 3 1.00
    130.709 0.154329
    23.8089 0.535328
    6.44361 0.444635
 s 3 1.00
    0.380389 0.700115
    1.1696 0.399513
    5.03315 -0.0999672
 p 3 1.00
    5.03315 0.155916
    1.1696 0.607684
    0.380389 0.391957

5 0
 s 3 1.00
    4.88566 0.444635
    18.0523 0.535328
    99.1062 0.154329
 s 3 1.00
    0.285714 0.700115
    0.878497 0.399513
    3.78046 -0.0999672
 p 3 1.00
    0.878497 0.607684
    3.78046 0.155916
    0.285714 0.391957

6 0
 s 3 1.00
    3.53051 0.444635
    13.0451 0.535328
    71.6168 0.154329
 s 3 1.00
    2.94125 -0.0999672
    0.683483 0.399513
    0.22229 0.700115
 p 3 1.00
    2.94125 0.155916
    0.683483 0.607684
    0.22229 0.391957

7 0
 s 3 1.00
    3.53051 0.444635
    13.0451 0.535328
    71.6168 0.154329
 s 3 1.00
    0.22229 0.700115
    2.94125 -0.0999672
    0.683483 0.399513
 p 3 1.00
    2.94125 0.155916
    0.683483 0.607684
    0.22229 0.391957

8 0
 s 3 1.00
    3.53051 0.444635
    13.0451 0.535328
    71.6168 0.154329
 s 3 1.00
    0.22229 0.700115
    0.683483 0.399513
    2.94125 -0.0999672
 p 3 1.00
    2.94125 0.155916
    0.683483 0.607684
    0.22229 0.391957

9 0
 s 3 1.00
    3.53051 0.444635
    13.0451 0.535328
    71.6168 0.154329
 s 3 1.00
    0.683483 0.399513
    2.94125 -0.0999672
    0.22229 0.700115
 p 3 1.00
    2.94125 0.155916
    0.683483 0.607684
    0.22229 0.391957

10 0
 s 3 1.00
    3.53051 0.444635
    71.6168 0.154329
    13.0451 0.535328
 s 3 1.00
    2.94125 -0.0999672
    0.683483 0.399513
    0.22229 0.700115
 p 3 1.00
    0.22229 0.391957
    2.94125 0.155916
    0.683483 0.607684

11 0
 s 3 1.00
    0.168855 0.444635
    0.623914 0.535328
    3.42525 0.154329

12 0
 s 3 1.00
    3.42525 0.154329
    0.623914 0.535328
    0.168855 0.444635

13 0
 s 3 1.00
    3.42525 0.154329
    0.623914 0.535328
    0.168855 0.444635

14 0
 s 3 1.00
    0.168855 0.444635
    0.623914 0.535328
    3.42525 0.154329

15 0
 s 3 1.00
    0.623914 0.535328
    3.42525 0.154329
    0.168855 0.444635

16 0
 s 3 1.00
    0.623914 0.535328
    3.42525 0.154329
    0.168855 0.444635

17 0
 s 3 1.00
    3.42525 0.154329
    0.623914 0.535328
    0.168855 0.444635

18 0
 s 3 1.00
    3.42525 0.154329
    0.168855 0.444635
    0.623914 0.535328

19 0
 s 3 1.00
    0.168855 0.444635
    0.623914 0.535328
    3.42525 0.154329

[MO]
Sym= A
Ene= -20.6107
Spin= Alpha
Occup= 2
 1 -8.0971117299814821e-08
 2 -2.6831651897714359e-08
 3 -3.7432890731764826e-08
 4 4.219186093383509e-09
 5 -3.2061003110727716e-09
 6 -0.00047034842230421481
 7 -0.00035629334349851494
 8 0.0005227143681910823
 9 0.0011531281860238246
 10 0.00015014078679767735
 11 -3.5277634091376853e-07
 12 -2.5344322431876398e-07
 13 5.1392750667427455e-08
 14 1.0766331299833648e-07
 15 6.3882789070593068e-09
 16 0.99367974587095675
 17 0.035065592468367407
 18 0.0063739627604248589
 19 0.0050270104891166068
 20 0.00076345147361913529
 21 -9.2338331932929896e-09
 22 1.2183700259706803e-07
 23 2.80408188916767e-08
 24 4.7337632552105907e-08
 25 -3.5114097223756975e-08
 26 6.549077009115889e-06
 27 -6.1001169284344986e-05
 28 2.7877814158097647e-05
 29 -1.4537691649422211e-05
 30 4.4030005874728245e-06
 31 2.3880213312343912e-07
 32 -1.2511188973683696e-06
 33 1.6748904581240232e-06
 34 -7.6087217954889236e-07
 35 -2.9787049919834628e-08
 36 -2.7270276015525785e-05
 37 7.1146571690293425e-05
 38 -0.00017533085937884718
 39 -0.00012522301129215714
 40 -1.6039746944302227e-05
 41 2.5856299249024314e-08
 42 2.8981356374208761e-08
 43 3.8037035756250922e-07
 44 4.6219172916543184e-08
 45 2.1897722236397313e-08
 46 -0.00020843246784996855
 47 -0.014926770734222487
 48 0.0072870455424971781
 49 0.0050246162305260522
 50 0.00078786501965491529
 51 2.9904333696123553e-07
 52 0.00010373249031915294
 53 -7.838917709676943e-07
 54 3.8689129448810783e-05
 55 -1.3616905207999852e-05
 56 5.4258522197772607e-08
 57 -6.4395409561570499e-08
 58 -3.0447516171944883e-08
 59 2.636247434804808e-05
Sym= A
Ene= -20.510826064421821
Spin= Alpha
Occup= 2
 1 -0.00027224977180558343
 2 1.3409702861125888e-06
 3 -0.00094313711953543378
 4 3.6339392664848369e-05
 5 -0.00010328019469242264
 6 -7.961601197763353e-07
 7 3.2167218041436949e-07
 8 -1.3371920874348433e-07
 9 -3.237942740649119e-07
 10 -4.6855592413940113e-08
 11 0.99369984723781268
 12 0.034850425238670546
 13 -0.0075615568757325252
 14 -0.0026383914960277366
 15 -0.00072559583156292431
 16 3.9005889215185802e-07
 17 -1.4082872074462453e-07
 18 -2.0988046494762463e-08
 19 -5.9033755227949625e-08
 20 -1.6555570345514435e-08
 21 4.6797619139629654e-06
 22 -4.7004305768066912e-05
 23 -1.9047735953316852e-05
 24 -3.5578673776827385e-05
 25 1.6920265381528272e-06
 26 -7.0658737232921764e-07
 27 1.1126556241037797e-05
 28 2.6037135778672615e-06
 29 -6.1979072060049751e-06
 30 -8.9510576437002408e-07
 31 -3.1718447075924916e-05
 32 0.00010343928879635172
 33 0.00018326941684262618
 34 6.5992014183113845e-05
 35 2.207188296309958e-05
 36 -1.1243424504554962e-06
 37 1.1482397514288789e-05
 38 7.0887093149970756e-06
 39 2.5372361828852538e-07
 40 -9.4048923422957245e-07
 41 -0.00016602303429715318
 42 -0.014880198302716773
 43 -0.0082800139133743234
 44 -0.0031692348771852411
 45 -0.00078393451278608792
 46 -3.8752398837517237e-08
 47 3.2009192601258209e-07
 48 4.0668175346216494e-07
 49 -3.0689731662491421e-07
 50 1.6326612695800012e-08
 51 -5.8524272959249724e-07
 52 -2.0865644764543959e-05
 53 6.7774645033390896e-05
 54 -3.4965134482270455e-06
 55 -2.4417777337291426e-06
 56 5.6073002088364438e-06
 57 -4.2007167799801987e-06
 58 2.8671676269027835e-05
 59 -5.5210131218348668e-07
Sym= A
Ene= -20.387383451759675
Spin= Alpha
Occup= 2
 1 -2.0173843615885548e-06
 2 6.2488445076811644e-07
 3 1.1419387698559814e-06
 4 -3.8750338983732299e-07
 5 1.394653763750974e-07
 6 0.99449543713072774
 7 0.023736563095306557
 8 0.0012267303502438154
 9 -0.0018493160166878457
 10 -0.00018555629033137561
 11 7.9144864650578309e-07
 12 -1.7085983771434124e-07
 13 1.6202219196273428e-07
 14 -3.6030573443346023e-07
 15 2.8847864494765951e-08
 16 0.0007911075603875134
 17 0.00078474949737362965
 18 0.001237978613266277
 19 -0.00048551954330862401
 20 -2.4205228536121684e-05
 21 6.7050156832976215e-10
 22 -2.068092437362487e-08
 23 -1.2890184268934957e-08
 24 -1.2873997601477172e-08
 25 8.8579361467305828e-10
 26 -1.8000921143956905e-06
 27 1.6787883526363928e-05
 28 -7.7256289644223042e-06
 29 4.8309978899212409e-06
 30 -2.0274501624107516e-06
 31 -9.2051363521222784e-08
 32 4.7494922385607485e-07
 33 -5.842952547976954e-07
 34 2.4115595663627698e-07
 35 2.074246494763966e-08
 36 1.2357998035783524e-05
 37 -9.7129888406786991e-05
 38 9.7981703075178395e-05
 39 3.5861371503801559e-05
 40 5.1552906744560496e-06
 41 5.3466457193476064e-08
 42 -2.692146957694163e-07
 43 5.0037320089728115e-08
 44 -2.3360421901443083e-07
 45 1.1964206463543035e-08
 46 0.00052180789801875571
 47 -0.0051370668119983531
 48 0.0033138718809362297
 49 -0.001741972371103101
 50 -0.00011653171572242188
 51 -2.6292848107414835e-07
 52 -3.5270706969462579e-05
 53 2.04481872634419e-07
 54 -7.5990917600132768e-07
 55 8.2592569315767528e-06
 56 7.0415809121093798e-09
 57 -1.5306772012651376e-08
 58 -1.4917736097402358e-06
 59 -0.0022270461105514394
Sym= A
Ene= -20.209101895509697
Spin= Alpha
Occup= 2
 1 0.99451376518826584
 2 0.023362935664843959
 3 0.00063092722416494516
 4 -0.0013786305452135883
 5 0.00011707658523130152
 6 1.5964697140727346e-06
 7 1.7436495908626677e-06
 8 -7.1130732731531678e-07
 9 -1.624299814400286e-06
 10 -2.1508397479263856e-07
 11 0.00050129776833841844
 12 0.0010794165119246586
 13 -0.00041295197200388878
 14 -0.00099723641057361534
 15 -9.4859660173165355e-06
 16 2.0449614238169517e-07
 17 -5.1705290059211872e-07
 18 2.0325629033254161e-07
 19 -4.7088522219136675e-07
 20 -4.6393679257019163e-08
 21 -1.0661811825456169e-06
 22 1.0188795015780155e-05
 23 5.3922449684724871e-06
 24 9.1534599211112039e-06
 25 8.7816698140336883e-08
 26 4.119190903859038e-07
 27 -4.283261462113136e-06
 28 -8.4020496011680268e-07
 29 1.5172957794858978e-06
 30 4.3624389209481404e-07
 31 1.3308488633317905e-05
 32 -0.00010484566739183895
 33 -7.4058336995082991e-05
 34 -5.6010422930487941e-05
 35 -6.3939297845834638e-06
 36 2.2287851885989876e-07
 37 -2.5385634943064003e-06
 38 -1.0327645690892326e-06
 39 1.3514810939252442e-06
 40 3.2039588767338902e-07
 41 0.00050838079981725681
 42 -0.0046299898292832681
 43 -0.00034559988988587531
 44 -0.0034095818290135471
 45 8.2965833120320076e-05
 46 8.6817613326054324e-08
 47 -2.7875330870545331e-07
 48 7.5664275137000882e-07
 49 -1.0030286554732482e-06
 50 -1.0639314391080665e-07
 51 2.8277921912314014e-07
 52 6.9730067224381062e-06
 53 -5.6425302442861258e-06
 54 1.5704044676139155e-06
 55 -6.0390996819920453e-06
 56 -2.2478685012799343e-06
 57 1.0438928977046097e-06
 58 -0.0023748247682109647
 59 -2.7802909220867381e-06
Sym= A
Ene= -15.317073143383443
Spin= Alpha
Occup= 2
 1 -1.7385274979353493e-06
 2 5.0541310355946972e-06
 3 -5.5007309491712786e-06
 4 -6.8741920789278793e-06
 5 2.9548811933659963e-07
 6 6.1817231689423324e-09
 7 -1.8061359838717622e-08
 8 -3.854457401202601e-08
 9 -4.6880259321237239e-08
 10 -1.3761784016660342e-08
 11 7.0911136191356694e-06
 12 -0.00014650399661143149
 13 5.7017029373592452e-05
 14 1.7151735844461724e-05
 15 6.1395940645550388e-06
 16 -2.9262888674719267e-09
 17 2.7487228130944341e-07
 18 8.1933202615742939e-08
 19 5.2540075822123111e-08
 20 -1.3751319284497927e-08
 21 0.99406026872727282
 22 0.026329449823474349
 23 0.00073613790761281909
 24 0.0023718256690924977
 25 -0.00039587123210200158
 26 -2.0006934547736003e-05
 27 0.0001326159612446223
 28 0.00012401343989764703
 29 -1.8110416274887825e-05
 30 5.0334908711217353e-06
 31 0.00025681048651197795
 32 -0.00086873339504816433
 33 0.00095205210941688712
 34 0.002176550223972909
 35 -0.00037212332197465378
 36 -1.1052399064154228e-06
 37 1.8355667351260471e-05
 38 1.3861678500942491e-05
 39 -1.4552619922326288e-06
 40 -4.4529647579494768e-06
 41 1.8318552485975179e-07
 42 7.296016203470982e-05
 43 0.00018651970896860475
 44 2.7404164185524521e-05
 45 1.1888752722314158e-05
 46 -5.8882453283885805e-08
 47 2.1920864300633376e-07
 48 5.1803468103348732e-07
 49 2.7125940100288654e-07
 50 1.3264340698407136e-07
 51 -1.8848648605502769e-05
 52 -3.8309496798825428e-05
 53 -0.0061422187441935727
 54 1.8803760182890556e-05
 55 1.1519557388175311e-06
 56 -0.0023335132631969041
 57 -0.0025637981825960554
 58 8.4948543113607528e-07
 59 2.6132544617835096e-08
Sym= A
Ene= -11.229643589024855
Spin= Alpha
Occup= 2
 1 -1.8617934701543014e-07
 2 1.0221180899526298e-06
 3 1.3131260997831413e-06
 4 -6.6742533920676611e-07
 5 1.6561289936289437e-07
 6 -0.00060857328478913786
 7 0.0059829080281974117
 8 0.0018828777823471157
 9 -0.00183588398522809
 10 -0.00016635405466397784
 11 1.0815296755601386e-07
 12 -1.3108240666750591e-06
 13 6.116481859989864e-07
 14 -4.0976519367224868e-07
 15 1.0161076709165129e-07
 16 0.002128003825056797
 17 0.0070497456354234826
 18 -0.0017840285820598101
 19 -0.0017427997507165217
 20 -0.0002549681783524313
 21 2.1017298466700918e-08
 22 -1.595271259930385e-07
 23 1.0724895907173251e-07
 24 -1.3560603824049056e-07
 25 -5.1205934799151195e-08
 26 -3.1010361715332752e-05
 27 -5.4282566107536831e-05
 28 1.2140600162715426e-05
 29 7.8811736838046986e-07
 30 1.5248554705592048e-05
 31 -3.7002107241071447e-07
 32 -1.3869935153150784e-06
 33 2.2627648805714773e-06
 34 -2.8250024666049648e-06
 35 -2.4698487357895549e-07
 36 0.00025787954650946868
 37 0.00067382249345008735
 38 -0.00098120217829944512
 39 3.6853899704320588e-05
 40 -1.3891741612519909e-05
 41 -3.1135732031766644e-07
 42 -3.5530578210499209e-07
 43 1.8127603116967553e-06
 44 -4.4039240668352492e-07
 45 1.44861059307586e-07
 46 -0.9926404944461672
 47 -0.029742219845741491
 48 0.0085777081743187711
 49 0.0022150215254888792
 50 0.00049527165207894405
 51 -1.4503272839579834e-05
 52 0.00027748561668317073
 53 -1.6117178528595073e-06
 54 0.00013232374787976956
 55 9.9298229672868665e-06
 56 2.2920759965537607e-07
 57 1.6817141827545068e-08
 58 -8.865399645063398e-07
 59 0.00015667510643956051
Sym= A
Ene= -11.15597700984096
Spin= Alpha
Occup= 2
 1 -0.00060624519891531309
 2 0.0051899856125813548
 3 0.00058913582418548827
 4 -0.0024431245146693883
 5 0.0001496358553205279
 6 1.2354939254370471e-07
 7 -7.9918256675457801e-07
 8 2.6610837070277938e-07
 9 6.8966336583264898e-07
 10 1.0122648975025841e-07
 11 0.0020484371050026005
 12 0.0067634414724500706
 13 0.002405127151448333
 14 0.00061878488453796787
 15 0.00023645340967604588
 16 -7.6938720292582877e-08
 17 4.0842582933856052e-07
 18 8.7353927433870236e-08
 19 1.1710704837580507e-07
 20 4.2333173241339544e-08
 21 9.0378050167820643e-06
 22 -4.0245353083461291e-05
 23 -8.8416152009669624e-05
 24 -4.7154057437054017e-05
 25 2.180627000939947e-06
 26 -1.0627243255201604e-05
 27 -2.9764839951623928e-05
 28 -7.2463178102692358e-07
 29 -3.0569808938112064e-05
 30 1.6306831872611813e-06
 31 0.00073148990346266589
 32 0.00089173920767141729
 33 0.00047434743131326285
 34 0.00086509644710607014
 35 3.1221915120446114e-05
 36 -8.6964677022533226e-06
 37 -2.1663255958472732e-05
 38 -1.4214589368236746e-05
 39 -7.6155800114805633e-06
 40 2.6563054945483015e-06
 41 -0.99270711666653622
 42 -0.029148583337655062
 43 -0.0062504375002243456
 44 -0.0049236323206028366
 45 -0.00049685270726390314
 46 6.1102739963613331e-07
 47 -5.5637180185717783e-07
 48 -7.8675567716799191e-07
 49 8.4300122663851992e-07
 50 -3.1261319558169298e-08
 51 7.1394972537023801e-07
 52 6.8706970556961272e-05
 53 0.00021879649528735653
 54 -1.3403896441128299e-07
 55 9.9750232662686438e-06
 56 8.8787794404639186e-06
 57 -8.0546401847484891e-06
 58 0.00016803223872864648
 59 1.2021582310776067e-06
Sym= A
Ene= -11.002887063243634
Spin= Alpha
Occup= 2
 1 1.8115771486727772e-05
 2 -0.0001668023146999438
 3 -4.6369655763902479e-05
 4 7.8540697347813382e-05
 5 -7.7476226041360043e-06
 6 4.5603230195562228e-08
 7 -2.8976716439851891e-07
 8 2.5303722671777412e-07
 9 5.1787599486541325e-08
 10 3.5019067548547334e-08
 11 -4.6379955538848605e-05
 12 -4.7030112065006568e-05
 13 4.6527028302248332e-05
 14 -0.00024215216935652428
 15 1.2355931311080473e-05
 16 9.3161410221614949e-08
 17 -1.7826607291090979e-06
 18 -5.8278073940265518e-07
 19 -5.1130921095016157e-07
 20 1.5322200353981574e-08
 21 0.000267086239953349
 22 -0.0024072336117038282
 23 0.0016951508607387436
 24 -0.0013994100965428642
 25 -0.00014034420227711057
 26 -0.015584353549650503
 27 -0.0013957549895897287
 28 -0.0010058845228717861
 29 0.00012272753227931914
 30 6.4661934481118066e-06
 31 0.99311870390860657
 32 0.029947972592063582
 33 0.0050174944166841238
 34 -0.0046362495694426131
 35 -0.00025807096563528441
 36 -0.00012053818998740418
 37 -6.3376946194178968e-05
 38 -2.7053672711857546e-05
 39 2.2810387782980918e-05
 40 1.4236968937961919e-05
 41 0.0011951658674137899
 42 -0.0012568563532500132
 43 0.00053658129626547174
 44 0.0014516976346959226
 45 7.5355474675508141e-06
 46 -2.7312919869196262e-07
 47 1.9026582754868779e-06
 48 -9.7024218388089972e-07
 49 -1.411542160521112e-06
 50 -4.3161112829592785e-07
 51 4.3649237669077766e-05
 52 0.00013521782284831377
 53 -0.0089449361710143144
 54 -7.120789305674162e-05
 55 -1.5426511555949318e-06
 56 0.00024691676070291539
 57 4.2552977328795538e-05
 58 -4.648140067961895e-06
 59 6.5238702062417331e-07
Sym= A
Ene= -10.995415001351844
Spin= Alpha
Occup= 2
 1 3.2175157335494198e-07
 2 -3.4475574225527328e-06
 3 1.4552188580714553e-07
 4 2.2314417940207457e-06
 5 -1.0545086054770773e-07
 6 -1.9589230059458007e-06
 7 1.0026113110687268e-05
 8 9.8445876277131542e-06
 9 -3.0143676670660313e-06
 10 -1.4219503130640659e-06
 11 -7.5018270751132932e-07
 12 1.6572135405039032e-05
 13 -3.6264847952591217e-06
 14 -6.4757020761738171e-06
 15 -5.4377169201973163e-07
 16 7.3122945892581392e-06
 17 -0.00013375442757865286
 18 -4.7220573478140571e-05
 19 -2.8014097577272468e-05
 20 -7.059292749767368e-06
 21 -1.7499978788635458e-05
 22 0.00011687237177976763
 23 1.7273953350480098e-05
 24 6.49827012459284e-05
 25 -1.763005469610163e-05
 26 0.99247002291006892
 27 0.032116746100126228
 28 -0.0058679162970614734
 29 0.0039465647363905107
 30 3.5860984847091437e-05
 31 0.015979204969047835
 32 -0.0002484056368378465
 33 0.0011888366377116044
 34 -0.00024032772293116136
 35 -2.3030318879142114e-05
 36 0.017444006748998583
 37 -0.00082876659740143896
 38 -0.0015573955314276411
 39 0.0010220013434958548
 40 6.9602820229761053e-05
 41 5.1961127748071344e-07
 42 -9.0688457085852901e-06
 43 -2.6381879685202086e-05
 44 1.3896497591481261e-05
 45 -1.6989085490103951e-06
 46 -4.218354317385084e-05
 47 0.00010203011164051055
 48 -7.1473473384190203e-05
 49 -0.00013919437016110536
 50 -3.8937532533152297e-06
 51 -0.0023357871584213236
 52 -0.0079263326738211043
 53 -0.00059556542166016267
 54 -0.0056988965752380605
 55 0.00064244145274072761
 56 2.2048483361103086e-05
 57 1.1441845487074071e-05
 58 -5.4753642246552214e-07
 59 2.8418471156067826e-06
Sym= A
Ene= -10.981905359306268
Spin= Alpha
Occup= 2
 1 -2.6572216697568624e-07
 2 2.7946231013745073e-06
 3 3.3635265981456653e-06
 4 -3.3324173612632674e-06
 5 3.4465504240691042e-07
 6 -1.2932048823334485e-05
 7 0.00014405604879834388
 8 3.4512511850927526e-05
 9 -7.0662562993220601e-05
 10 -6.3574600603980014e-06
 11 1.2325320059951295e-06
 12 -2.781026238789599e-05
 13 7.9957418446799313e-06
 14 5.864326332205138e-06
 15 1.3917847377840865e-06
 16 3.4323794059959445e-05
 17 0.00012796549591170131
 18 -0.00010406585002803448
 19 0.00014710544223674182
 20 1.5762850901737853e-05
 21 1.1476152718074145e-06
 22 -1.1798955705681624e-05
 23 1.9524690489020925e-06
 24 -7.0929117397529155e-06
 25 6.0198844246932965e-07
 26 0.017250243618473556
 27 0.0021713260274406655
 28 -0.0020223016259884249
 29 0.0007217071289860183
 30 0.00023741663541557915
 31 0.00016000519267253197
 32 5.6566516879602569e-07
 33 3.0838055889621102e-05
 34 -8.6497642595896682e-05
 35 -3.7570427292527107e-06
 36 -0.99230166575054801
 37 -0.033915989602803592
 38 -0.0060051084813737277
 39 0.0037753303270026614
 40 0.00020185519458858735
 41 1.4475155832313321e-05
 42 3.3867234866914253e-06
 43 4.2061519093174833e-05
 44 -1.7014872226370215e-06
 45 2.100022988753259e-06
 46 -0.00063593431181444698
 47 0.00094119213638255844
 48 0.001274129562243112
 49 -0.00020313986529251621
 50 -2.9439828339462154e-07
 51 -0.00090864569566045592
 52 0.0071018484979789159
 53 -3.0989696028284417e-05
 54 0.0074252775339377491
 55 0.002462436856367739
 56 1.0171870195524804e-06
 57 1.07876268742404e-05
 58 -1.4102616437736246e-06
 59 9.1659024933389566e-06
Sym= A
Ene= -1.7867722885645856
Spin= Alpha
Occup= 2
 1 -1.2376870374735316e-06
 2 7.8419250987360814e-06
 3 1.6680620226157172e-05
 4 -5.7351721377572667e-06
 5 2.0338217725160757e-06
 6 -0.067987623379586873
 7 0.19915340768412571
 8 0.023830114589994265
 9 -0.043108211702171696
 10 -0.0044519134627642948
 11 6.7537753991101217e-07
 12 -4.2997904030812363e-06
 13 2.3969315916490939e-06
 14 -3.8766130319275636e-06
 15 3.1169002425108019e-07
 16 -0.20854979809199611
 17 0.67460159797882846
 18 0.15987288447090056
 19 0.16288757912794588
 20 0.023557104593901746
 21 -1.8283124988657026e-07
 22 8.3268008507406642e-07
 23 -8.1539920144526809e-07
 24 -1.3513184444113781e-07
 25 -6.5902900572576751e-07
 26 1.1566177885479964e-05
 27 0.00035588879653258073
 28 -0.00022773486461049111
 29 4.7416902708544845e-05
 30 6.1393246837497788e-05
 31 -8.7333326649879223e-07
 32 5.2898884558604323e-06
 33 -1.4254159917013662e-06
 34 -2.4971435051688619e-06
 35 9.5365532285244994e-08
 36 -0.0014961524204003991
 37 0.0073528517628386435
 38 -0.0066667232642683687
 39 0.0017087392177568806
 40 9.3542608809874252e-05
 41 1.6159766765611906e-06
 42 -5.5175803906713631e-06
 43 5.1727093527312957e-06
 44 -3.0972058242599533e-06
 45 5.4213880808497649e-07
 46 -0.16171044181027289
 47 0.16328164288555091
 48 -0.13188988117029013
 49 -0.044828399434395982
 50 -0.0088027550184596078
 51 3.5431904495300971e-05
 52 0.00059259455837873962
 53 -3.5029839500002615e-06
 54 -0.00022853534970820356
 55 0.00022552010673890927
 56 1.5491602074245783e-06
 57 -1.798534106103541e-06
 58 -1.9561131025462667e-05
 59 0.0030914491666749269
Sym= A
Ene= -1.6674761586911493
Spin= Alpha
Occup= 2
 1 -0.048818055534285199
 2 0.1416639273972812
 3 0.01489411676171595
 4 -0.028043040078874273
 5 0.0026039331531475009
 6 -1.6267845312794736e-06
 7 9.5447446576158454e-06
 8 -4.9417855781754737e-06
 9 -8.8676256136515632e-06
 10 -1.1994422522488603e-06
 11 -0.21537288278321076
 12 0.69822737065728069
 13 -0.21794075751482533
 14 -0.057727977948526604
 15 -0.021554627142476003
 16 3.9315622817330965e-07
 17 -1.9200579676406518e-06
 18 1.719409003504745e-06
 19 -2.9637516195642546e-06
 20 -2.7474546122983196e-07
 21 -0.00013000896622112571
 22 0.00067675664409688144
 23 -0.00010145688662937559
 24 0.0002982005652640389
 25 -3.1188809349234469e-05
 26 4.9361578969252251e-07
 27 -0.0001783245367127529
 28 -5.1264207668499234e-05
 29 -4.3187714705759071e-05
 30 1.3744501502440916e-05
 31 -0.0018095575981546298
 32 0.0082274093120645597
 33 0.0021733536298736596
 34 0.0058944494623221402
 35 -8.3095406916498696e-05
 36 3.8208858399530545e-06
 37 -0.00014062776534878879
 38 -7.5704507078032564e-05
 39 -2.4735126682829713e-05
 40 1.3773875937496139e-05
 41 -0.16507423292715823
 42 0.18271236544891553
 43 0.12348542517467639
 44 0.074309181378561698
 45 0.01070744251579072
 46 8.084740142406835e-07
 47 -4.1128501907757627e-06
 48 3.5009246131599385e-06
 49 -6.6317557287213537e-06
 50 -9.5816292161578708e-07
 51 1.5354408642058318e-05
 52 0.00051099131555857615
 53 -0.00012691885775405025
 54 8.0317725458997071e-06
 55 7.3898310028489185e-05
 56 1.2227496842364197e-05
 57 1.1324823095591957e-05
 58 0.0036961778428892117
 59 -1.4773869973172754e-05
Sym= A
Ene= -1.2727828250472069
Spin= Alpha
Occup= 2
 1 2.6441502786848925e-06
 2 -2.6512547748189924e-05
 3 -8.8500496926564929e-05
 4 2.7586002671440668e-05
 5 -1.0626807604221795e-05
 6 0.2255519544007831
 7 -0.86359104614498805
 8 -0.033285035271942355
 9 0.040375610684216745
 10 0.003888078354071017
 11 -6.5186291991342626e-07
 12 8.9426400456205177e-06
 13 -1.461183573231236e-05
 14 3.0396092011536219e-05
 15 -2.2770570356145316e-06
 16 -0.093114465849835404
 17 0.35043141641485759
 18 0.15672693475857977
 19 -0.059918637175838119
 20 -0.0028053703086992898
 21 -3.0494144183672214e-06
 22 7.0016170284133584e-06
 23 2.1986676666048595e-06
 24 2.4671160653451894e-06
 25 2.3451574901035377e-06
 26 -0.00057943611191779709
 27 0.0014750470259340936
 28 -0.00055396021634841579
 29 0.00034267620425604793
 30 -4.2097880564777833e-05
 31 -3.4619036333536496e-06
 32 3.4390972632036138e-06
 33 -1.360387181979783e-06
 34 -6.2632191422408705e-06
 35 -3.4717012615513994e-06
 36 -0.0014931378841416335
 37 0.0039505413602514841
 38 -0.00076722344465206087
 39 0.00034579100336865477
 40 -8.2054158855295804e-06
 41 -8.1060307718504743e-06
 42 3.206241033144072e-05
 43 -2.6616485728161635e-05
 44 2.0917476625738948e-05
 45 -3.4300975654895003e-06
 46 -0.031821904397311702
 47 -0.00076161373600917848
 48 0.0018064499462641208
 49 -0.14816867142513021
 50 -0.017368525438099823
 51 6.4899000762486201e-05
 52 0.00049830790958568794
 53 1.7006220740221857e-05
 54 0.0013071443729604326
 55 0.00017138487737713634
 56 -5.8782624811478876e-06
 57 6.1583301338072587e-06
 58 9.3594549013871324e-05
 59 -0.045076929433038301
Sym= A
Ene= -1.1613378091472457
Spin= Alpha
Occup= 2
 1 0.2312116012880743
 2 -0.87845984406566568
 3 -0.015957485436026313
 4 0.043836814719211942
 5 -0.0033118257621578828
 6 2.7094739802117213e-05
 7 -0.00013153116705752672
 8 4.4387943474135793e-05
 9 7.7257128679942416e-05
 10 1.0724185285289648e-05
 11 -0.07435145994272882
 12 0.28204963530741056
 13 -0.014809374628284681
 14 -0.14447465671213389
 15 0.003466700137354106
 16 -1.1056805467189214e-05
 17 4.4838513682471945e-05
 18 -1.6029197222400607e-06
 19 2.4847559152780651e-05
 20 2.5359764078977469e-06
 21 -0.0067163079382568268
 22 0.021445375320629206
 23 0.0004866792837332763
 24 0.0050643052530878951
 25 -0.00051846455587596966
 26 0.00023922007935325319
 27 -0.00048022651325797458
 28 0.00035933381546652925
 29 -0.00023980372741901139
 30 -1.2836047930127759e-05
 31 -0.0057408697910592329
 32 0.013154483328800237
 33 0.0041118671585279199
 34 -0.0031623874080381606
 35 -0.00022777565341586454
 36 0.00031443802167709507
 37 -0.00070404625833565316
 38 -0.00030800623271635139
 39 0.00017077518735805048
 40 1.2162018365821962e-05
 41 -0.015155488038568244
 42 -0.030287403030799763
 43 0.1105135826207283
 44 -0.094378711184549754
 45 0.015326260315969783
 46 -6.3683715786964998e-07
 47 -9.793727178192789e-06
 48 -5.4867455300561252e-05
 49 4.4818648296877841e-05
 50 3.2578146885540581e-06
 51 -1.336914575760721e-05
 52 -0.00068941184778716406
 53 0.012770599981459248
 54 -0.00031865369179195566
 55 -0.00045067886036621657
 56 0.0015282747697675377
 57 0.0012488008252679993
 58 -0.060514409288695059
 59 0.00012545059821836052
Sym= A
Ene= -1.138157163751494
Spin= Alpha
Occup= 2
 1 -0.0044912702879389499
 2 0.017251704908615193
 3 -0.00023315222803217781
 4 -0.00078120117411805854
 5 3.3847965354802677e-06
 6 -0.0017277189022861465
 7 0.0070775404983504731
 8 0.00066771500340456064
 9 0.00059918090483798659
 10 9.7924603480413312e-05
 11 0.0025426682295232299
 12 -0.0090297499309393674
 13 0.00098494299902917291
 14 0.0013821561785033226
 15 2.5636941166479309e-05
 16 0.0018965511904535169
 17 -0.0065051753247868738
 18 0.00040761762476382432
 19 -0.0014418677779188521
 20 -9.3691659739026832e-05
 21 -0.081794674905953824
 22 0.2665110376028435
 23 0.0034169280092231952
 24 0.058683061267611684
 25 -0.0070170381295552994
 26 -0.12555020010170215
 27 0.29763208819234627
 28 -0.10643107187940717
 29 0.082748824293522413
 30 0.0043592316285734397
 31 -0.059484468060307265
 32 0.13875795575217742
 33 0.037424160819840312
 34 -0.047296605622681974
 35 -0.00094707271153920622
 36 -0.12936765472046302
 37 0.30683968536407702
 38 0.11278983584344832
 39 -0.082289864711902305
 40 -0.0073148472821256659
 41 -0.00087312787321109676
 42 0.0042093548542604612
 43 -0.0048171359172542189
 44 -0.00053263241309198933
 45 -0.00039141060409386241
 46 -0.002505944041325649
 47 0.010386216119303942
 48 0.0079288641738162989
 49 0.0012800246776520068
 50 0.00032059219060888758
 51 0.024223461391669102
 52 0.22044782204527327
 53 0.13663594648052818
 54 0.16793669824331553
 55 0.023326581971494169
 56 0.018701818661453776
 57 0.015506222127775006
 58 0.0011973790293531034
 59 0.00035816082317574821
Sym= A
Ene= -1.1343932402184553
Spin= Alpha
Occup= 2
 1 -0.0095052331518485078
 2 0.036509095491440907
 3 -1.5913797732210986e-05
 4 -0.001501848951985677
 5 3.1676074200211066e-05
 6 0.00094624348128414734
 7 -0.0038848840564367059
 8 -0.00037332745765154298
 9 -0.00034970569223097118
 10 -5.642571881833873e-05
 11 0.0048429705895415964
 12 -0.017057039710038246
 13 0.0016290812819982083
 14 0.0033660739912941997
 15 -3.2674225313431628e-05
 16 -0.0010524999355679087
 17 0.003622181800344816
 18 -0.00025635757188644968
 19 0.00080977863798198141
 20 5.30953193268453e-05
 21 -0.15209180730236777
 22 0.49689125946208801
 23 0.0074287736839542063
 24 0.10877608113124186
 25 -0.013138518128872545
 26 0.066122457132202758
 27 -0.15396193446409676
 28 0.063468441148959553
 29 -0.045643632303841761
 30 -0.0023298958273279676
 31 -0.10520697784414121
 32 0.24006819478406632
 33 0.078190843841314403
 34 -0.085874474215227592
 35 -0.0015660558285580848
 36 0.071389327116634996
 37 -0.17012822040606537
 38 -0.062127760302557566
 39 0.045453868714095458
 40 0.0040061277256416439
 41 -0.00116554686207152
 42 0.0061599329856238116
 43 -0.0090288447591302043
 44 1.8342322877501829e-05
 45 -0.00080256329013629049
 46 0.0014085892089533013
 47 -0.0058152240014143364
 48 -0.0044264181079577761
 49 -0.00067207995172216062
 50 -0.00017677510699565642
 51 -0.011989482539824192
 52 -0.11978869060331747
 53 0.25399268710180839
 54 -0.092577267923055623
 55 -0.01291771190234783
 56 0.035444751844515496
 57 0.028552183519966995
 58 0.0025313181712046471
 59 -0.00018705183643208021
Sym= A
Ene= -0.82500308880099282
Spin= Alpha
Occup= 2
 1 -3.9544376757283926e-05
 2 0.0002075324756730041
 3 0.00040903083778031252
 4 -7.0903587818748519e-05
 5 4.4199351421066897e-05
 6 0.014057222406997978
 7 -0.085008630115736061