[Molden Format]
[Title]
generated by GANSU
[Atoms] (Angs)
Cl 1 17 -3.0722 0.6434 0.0002
Cl 2 17 -0.9787 2.9821 0.0004
Cl 3 17 -2.0937 -2.3383 0.001
Cl 4 17 2.0937 2.3381 -0.0007
Cl 5 17 0.9786 -2.982 -0.0016
Cl 6 17 3.0721 -0.6436 0.0015
C 7 6 -1.3653 0.2859 -0.0006
C 8 6 -0.4351 1.3253 -0.0005
C 9 6 -0.9301 -1.0394 -0.0001
C 10 6 0.9302 1.0395 0
C 11 6 0.4352 -1.3252 0.0003
C 12 6 1.3653 -0.2858 0.0002
[GTO]
1 0
 s 3 1.00
    109.536 0.535328
    29.6447 0.444635
    601.346 0.154329
 s 3 1.00
    38.9604 -0.0999672
    9.05356 0.399513
    2.9445 0.700115
 p 3 1.00
    2.9445 0.391957
    38.9604 0.155916
    9.05356 0.607684
 s 3 1.00
    2.12939 -0.21962
    0.232524 0.900398
    0.594093 0.225595
 p 3 1.00
    0.594093 0.595167
    0.232524 0.462001
    2.12939 0.0105876

2 0
 s 3 1.00
    601.346 0.154329
    109.536 0.535328
    29.6447 0.444635
 s 3 1.00
    2.9445 0.700115
    9.05356 0.399513
    38.9604 -0.0999672
 p 3 1.00
    38.9604 0.155916
    9.05356 0.607684
    2.9445 0.391957
 s 3 1.00
    2.12939 -0.21962
    0.594093 0.225595
    0.232524 0.900398
 p 3 1.00
    2.12939 0.0105876
    0.232524 0.462001
    0.594093 0.595167

3 0
 s 3 1.00
    29.6447 0.444635
    109.536 0.535328
    601.346 0.154329
 s 3 1.00
    2.9445 0.700115
    9.05356 0.399513
    38.9604 -0.0999672
 p 3 1.00
    38.9604 0.155916
    9.05356 0.607684
    2.9445 0.391957
 s 3 1.00
    0.232524 0.900398
    0.594093 0.225595
    2.12939 -0.21962
 p 3 1.00
    2.12939 0.0105876
    0.594093 0.595167
    0.232524 0.462001

4 0
 s 3 1.00
    29.6447 0.444635
    109.536 0.535328
    601.346 0.154329
 s 3 1.00
    38.9604 -0.0999672
    9.05356 0.399513
    2.9445 0.700115
 p 3 1.00
    38.9604 0.155916
    9.05356 0.607684
    2.9445 0.391957
 s 3 1.00
    0.232524 0.900398
    0.594093 0.225595
    2.12939 -0.21962
 p 3 1.00
    2.12939 0.0105876
    0.232524 0.462001
    0.594093 0.595167

5 0
 s 3 1.00
    109.536 0.535328
    29.6447 0.444635
    601.346 0.154329
 s 3 1.00
    38.9604 -0.0999672
    2.9445 0.700115
    9.05356 0.399513
 p 3 1.00
    2.9445 0.391957
    9.05356 0.607684
    38.9604 0.155916
 s 3 1.00
    0.232524 0.900398
    0.594093 0.225595
    2.12939 -0.21962
 p 3 1.00
    2.12939 0.0105876
    0.594093 0.595167
    0.232524 0.462001

6 0
 s 3 1.00
    601.346 0.154329
    109.536 0.535328
    29.6447 0.444635
 s 3 1.00
    2.9445 0.700115
    38.9604 -0.0999672
    9.05356 0.399513
 p 3 1.00
    38.9604 0.155916
    9.05356 0.607684
    2.9445 0.391957
 s 3 1.00
    0.232524 0.900398
    0.594093 0.225595
    2.12939 -0.21962
 p 3 1.00
    0.232524 0.462001
    0.594093 0.595167
    2.12939 0.0105876

7 0
 s 3 1.00
    13.0451 0.535328
    71.6168 0.154329
    3.53051 0.444635
 s 3 1.00
    2.94125 -0.0999672
    0.683483 0.399513
    0.22229 0.700115
 p 3 1.00
    0.22229 0.391957
    0.683483 0.607684
    2.94125 0.155916

8 0
 s 3 1.00
    71.6168 0.154329
    13.0451 0.535328
    3.53051 0.444635
 s 3 1.00
    2.94125 -0.0999672
    0.22229 0.700115
    0.683483 0.399513
 p 3 1.00
    0.22229 0.391957
    0.683483 0.607684
    2.94125 0.155916

9 0
 s 3 1.00
    71.6168 0.154329
    13.0451 0.535328
    3.53051 0.444635
 s 3 1.00
    2.94125 -0.0999672
    0.683483 0.399513
    0.22229 0.700115
 p 3 1.00
    0.683483 0.607684
    2.94125 0.155916
    0.22229 0.391957

10 0
 s 3 1.00
    3.53051 0.444635
    13.0451 0.535328
    71.6168 0.154329
 s 3 1.00
    2.94125 -0.0999672
    0.683483 0.399513
    0.22229 0.700115
 p 3 1.00
    0.22229 0.391957
    0.683483 0.607684
    2.94125 0.155916

11 0
 s 3 1.00
    71.6168 0.154329
    13.0451 0.535328
    3.53051 0.444635
 s 3 1.00
    2.94125 -0.0999672
    0.683483 0.399513
    0.22229 0.700115
 p 3 1.00
    0.683483 0.607684
    0.22229 0.391957
    2.94125 0.155916

12 0
 s 3 1.00
    3.53051 0.444635
    13.0451 0.535328
    71.6168 0.154329
 s 3 1.00
    0.22229 0.700115
    0.683483 0.399513
    2.94125 -0.0999672
 p 3 1.00
    2.94125 0.155916
    0.683483 0.607684
    0.22229 0.391957

[MO]
Sym= A
Ene= -103.775
Spin= Alpha
Occup= 2
 1 0.0058416089578399132
 2 9.2881073560311983e-05
 3 4.8258079221927876e-07
 4 2.2122943240354985e-07
 5 -2.3727350154679233e-11
 6 -1.2577204571335329e-05
 7 -2.8278348286389178e-06
 8 -2.2743460260970847e-06
 9 -6.9535007978521235e-10
 10 -0.13175966651824347
 11 -0.0020886281903526489
 12 -5.1324340959727554e-06
 13 7.1613623290581215e-06
 14 5.5597160200722418e-09
 15 0.00026125563535141732
 16 3.5646090669636537e-05
 17 -3.3151594727185557e-05
 18 -3.0507141000285951e-08
 19 -0.0015577946988831828
 20 -2.478794657690861e-05
 21 -1.3857731249982668e-07
 22 -8.3440629881764994e-08
 23 1.8911260730857502e-10
 24 3.8952007027224088e-06
 25 1.086397328072486e-06
 26 5.7834648625207436e-07
 27 -1.5652493565442629e-09
 28 0.98338631940269472
 29 0.01555821696427951
 30 -3.5666246489782443e-05
 31 -3.9526184419442757e-05
 32 2.3593869149531372e-08
 33 -0.001795747372631863
 34 0.00015109468587415028
 35 0.00016619863231429776
 36 -9.4277840412910557e-08
 37 0.022404843864117566
 38 0.00035463407447561848
 39 -2.5976218365143591e-07
 40 1.2132576359875342e-06
 41 1.5564138388169764e-09
 42 -4.1354105573429716e-05
 43 5.1592843625448462e-07
 44 -5.3149781271288988e-06
 45 -6.6640359273011251e-09
 46 -0.063994712509602231
 47 -0.0010166487355822474
 48 4.1376017065303113e-06
 49 -3.5301753620739594e-06
 50 5.2677161832582847e-09
 51 0.00013812951357478816
 52 -2.2141897155466122e-05
 53 2.8344318951501856e-05
 54 -3.4872499689079428e-08
 55 -9.735722188062175e-07
 56 6.5461745890958809e-06
 57 2.9427518758416694e-07
 58 1.0882058616802934e-06
 59 6.2514850144079493e-09
 60 6.9740905147961093e-06
 61 -6.3520650982239809e-05
 62 1.0588938437737833e-05
 63 -5.4009409285198991e-05
 64 -1.96599845183619e-08
 65 -6.1367161024653739e-08
 66 -1.7741588825873585e-06
 67 1.3544317284342478e-06
 68 1.6595770044789935e-06
 69 5.9156939899354729e-10
 70 -5.2924484054080595e-05
 71 0.00038599848933162689
 72 0.00020447857258065947
 73 0.00022891129356783247
 74 -1.2300673124105921e-07
 75 -1.8483338573610188e-06
 76 1.2206004336159869e-05
 77 1.981318734801266e-06
 78 -3.8573945702769265e-06
 79 -5.3625686057319336e-09
 80 3.3659798907806613e-06
 81 -3.7522224278889423e-05
 82 -3.4147357752022068e-05
 83 3.7495350286477146e-07
 84 -1.5368302663481198e-08
Sym= A
Ene= -103.77466795062801
Spin= Alpha
Occup= 2
 1 -0.00078853141367392354
 2 -1.2554897817076318e-05
 3 -1.7401041479823414e-08
 4 8.8996693865900048e-08
 5 -1.2948958686566707e-10
 6 1.4262408422939398e-06
 7 -1.6180060786867949e-07
 8 -7.2377377985282742e-07
 9 1.4841990267800083e-09
 10 -0.002255958955841787
 11 -3.5766416273053601e-05
 12 -1.0826703973912727e-07
 13 8.7284004255568585e-08
 14 3.8141365485376287e-11
 15 4.1321500217778675e-06
 16 7.4645232092744476e-07
 17 -1.1460469692359441e-07
 18 1.1028425083472272e-10
 19 0.043098289660185252
 20 0.00068599677899600336
 21 4.4187747980624003e-06
 22 9.1552563455613344e-07
 23 -4.9720519849465559e-09
 24 -9.9751826697162699e-05
 25 -3.2846996053267444e-05
 26 -9.1360114690762021e-07
 27 3.7966794356455901e-08
 28 0.026786837071106288
 29 0.00042359136377764371
 30 -1.0614385414045311e-06
 31 -9.5562874806352144e-07
 32 4.5208928057693675e-10
 33 -4.8312153805195794e-05
 34 4.9783652416661601e-06
 35 3.5225117568593755e-06
 36 -7.988013819923368e-10
 37 -0.99086135994291724
 38 -0.015676122355701833
 39 1.6613356845069185e-05
 40 -5.0884413193726504e-05
 41 -6.3336393912068562e-08
 42 0.0018075676499378023
 43 -6.9594663355677217e-05
 44 0.00021418198085743678
 45 2.5033024796038686e-07
 46 0.068239326909024012
 47 0.001083625229049562
 48 -5.4119123313957064e-06
 49 -1.6839038064202524e-06
 50 -6.660164905686862e-09
 51 -0.00014502818618745497
 52 3.2400165954383483e-05
 53 1.8295408532538091e-05
 54 4.6639104557231052e-08
 55 6.8841374259608083e-07
 56 -3.3832996820361897e-06
 57 -2.6101966874937981e-06
 58 1.1275238591754756e-06
 59 -7.2672630175965976e-09
 60 3.1863847783595893e-07
 61 -5.8944464094585465e-07
 62 -3.4282392397254013e-07
 63 4.4922071961167151e-07
 64 -1.7469107281730222e-09
 65 -2.2058723479615341e-06
 66 2.8987912681944434e-05
 67 -1.2951423246243386e-05
 68 -2.4693151748201121e-05
 69 -1.5087387516954933e-09
 70 -7.7480235382747309e-07
 71 7.0285283953186719e-06
 72 6.8685232896030473e-06
 73 8.7560946296031347e-06
 74 -9.7662457422227479e-09
 75 5.3301911681717881e-05
 76 -0.00038770422834230855
 77 -9.6220752667957606e-05
 78 0.00029283701353997925
 79 3.3873538767781447e-07
 80 -3.5459366084969259e-06
 81 3.8382304230585615e-05
 82 3.2463030621003458e-05
 83 -1.3999514336011398e-05
 84 7.4458882449488151e-09
Sym= A
Ene= -103.77465071365988
Spin= Alpha
Occup= 2
 1 0.096338387061253805
 2 0.001528258884841923
 3 6.9073694313250344e-06
 4 1.2647892554187242e-06
 5 -2.2578374471291375e-09
 6 -0.00019679740592937859
 7 -3.8789463005326405e-05
 8 -1.601088358316422e-05
 9 7.7373649748811939e-09
 10 -0.98095572347413684
 11 -0.015518792822695001
 12 -1.5873875432087958e-05
 13 5.0353398318884424e-05
 14 2.9450558923097464e-08
 15 0.0017863387708366835
 16 6.3707219582813648e-05
 17 -0.00021171161075872331
 18 -1.1319849225802477e-07
 19 -0.0038292690057376796
 20 -6.088508729466251e-05
 21 -9.4309230572046502e-09
 22 -3.4493809316659103e-07
 23 1.4397300621484782e-10
 24 8.0308878546906408e-06
 25 -6.2298481494265659e-07
 26 2.2784024215410379e-06
 27 -5.2873153059811712e-10
 28 -0.13073886092378262
 29 -0.0020642778475854187
 30 1.8391340907119074e-06
 31 6.1068827618016459e-06
 32 -1.5434561987181149e-09
 33 0.00021761016359569908
 34 6.5570042700489794e-06
 35 -2.8776063566781308e-05
 36 -2.5140064901591611e-09
 37 -0.00019862122890685881
 38 -3.161681445296443e-06
 39 -5.7087997970289162e-08
 40 -7.9142093435640465e-10
 41 3.1717883652676426e-11
 42 2.8418026219314027e-08
 43 5.7455889738115376e-07
 44 -1.9701023941765737e-07
 45 -5.7040877676289737e-10
 46 0.019537088029618642
 47 0.00030972776002322858
 48 -1.1795963530320139e-06
 49 6.4861905082377955e-07
 50 -1.1975909730881899e-09
 51 -3.9304401926862108e-05
 52 5.9782316590897469e-06
 53 -4.8277087124687944e-06
 54 6.8686267438441065e-09
 55 -4.9389689392204638e-06
 56 4.9127435992899911e-05
 57 -4.1913347982799487e-05
 58 1.5636945860542841e-05
 59 2.452668483930175e-08
 60 5.2795754875823483e-05
 61 -0.0003820582598868146
 62 9.5970127762054264e-05
 63 -0.00028744715972558093
 64 -1.6051123611758841e-07
 65 8.9687084100802166e-07
 66 -5.1509248162228411e-06
 67 -2.8663400218193149e-07
 68 -1.6877043993766666e-06
 69 -1.8671204467575059e-11
 70 7.1329028026604059e-06
 71 -3.9084524499131797e-05
 72 -2.3314472015615417e-05
 73 -1.5660057015242695e-05
 74 2.0230208346482156e-08
 75 3.0823586299061026e-07
 76 -5.3543292737378972e-08
 77 3.7433353590060048e-07
 78 -1.83871009418958e-06
 79 1.5723542053726217e-10
 80 -3.7015531666549889e-07
 81 6.566918342542531e-06
 82 1.141023585275271e-05
 83 -1.7242962733331532e-06
 84 9.4346302051606419e-09
Sym= A
Ene= -103.77462667905354
Spin= Alpha
Occup= 2
 1 -0.010078594459550387
 2 -0.00015950140496545412
 3 -5.9668900305949143e-07
 4 6.799660263944547e-08
 5 3.196013493761339e-10
 6 1.9126574801199926e-05
 7 3.0087729993736265e-06
 8 -1.2306191550801074e-07
 9 -1.6253231924547278e-09
 10 0.010189226815199121
 11 0.00016086763077278682
 12 -1.0115496257664676e-07
 13 -4.62695792733273e-07
 14 -1.563171464460038e-10
 15 -1.6402951697960496e-05
 16 1.7924819660449586e-06
 17 1.4062078256862973e-06
 18 -3.2729420048382255e-10
 19 -0.010436809799585438
 20 -0.00016546456806610914
 21 -6.6333656872601274e-07
 22 -3.6011596588533011e-07
 23 6.7448770789181032e-10
 24 2.1299265982931271e-05
 25 4.3254780881871219e-06
 26 1.4405853254519029e-06
 27 -4.3456426700717219e-09
 28 0.064243707150675192
 29 0.0010121186772790807
 30 -3.4055273683691374e-06
 31 1.9170673029251013e-07
 32 -1.0732819846037736e-09
 33 -9.5422562645224501e-05
 34 1.8592131190956872e-05
 35 -1.4785294095778943e-05
 36 1.7935565919380952e-08
 37 0.069438962681833041
 38 0.0010944010114610329
 39 -3.3403452164637236e-06
 40 1.4689819896076113e-06
 41 7.087950011881206e-10
 42 -0.00010535671689577991
 43 2.3859531636234371e-05
 44 4.8382989076002561e-06
 45 1.7568648519190437e-08
 46 0.98983910081249116
 47 0.015658908371368029
 48 -5.199343337466292e-05
 49 1.0913972746205163e-05
 50 -4.15274203670699e-08
 51 -0.0018002588479572507
 52 0.0002168716168976503
 53 -4.5583823015151764e-05
 54 1.6452844191211738e-07
 55 1.7111924062585386e-07
 56 -3.883626413334675e-06
 57 5.5123202948715553e-06
 58 -1.3016489920033898e-06
 59 -7.2052068909652705e-10
 60 -1.2574525230936152e-06
 61 5.8647177623805387e-06
 62 2.2339146252086057e-07
 63 -1.5616049039583188e-06
 64 -5.3982471444204321e-11
 65 -1.6324821026826854e-07
 66 -2.1614700942935847e-06
 67 5.1651004864995396e-06
 68 6.2232414621620584e-06
 69 -5.2346492460851569e-09
 70 -3.6534591150896769e-06
 71 1.3087254506075169e-05
 72 -1.3973352768453471e-06
 73 8.5690013157490764e-06
 74 -1.278530510601263e-08
 75 -3.9398396534184289e-06
 76 1.5336771226104525e-05
 77 -4.2328441637744276e-06
 78 -9.1629564565748175e-06
 79 -2.3201264876267534e-08
 80 -5.3289918333259288e-05
 81 0.00038421129256842768
 82 0.00029780381907815927
 83 -6.238466785647923e-05
 84 2.3072096698928739e-07
Sym= A
Ene= -103.77462114778351
Spin= Alpha
Occup= 2
 1 0.97921661501099344
 2 0.01549161838394837
 3 5.153478389661724e-05
 4 -1.1460448233877427e-05
 5 -2.6016655118858393e-08
 6 -0.0017847988475841923
 7 -0.00021566399414369285
 8 5.1108948077130887e-05
 9 1.0039479466372688e-07
 10 0.095891971555106051
 11 0.0015128850293309954
 12 3.7026614089419272e-06
 13 -2.853806334910701e-06
 14 -2.8472478586345565e-09
 15 -0.00015359638349211121
 16 -2.4998934160780018e-05
 17 1.1443811093248064e-06
 18 1.0214896664726265e-08
 19 -0.14432508825352858
 20 -0.0022873758831601938
 21 -4.0562654301403794e-06
 22 -8.5449989093815499e-06
 23 5.7310999704612147e-09
 24 0.00028399052007583567
 25 1.2494872491014806e-05
 26 4.9716764745205797e-05
 27 -2.5953181703035853e-08
 28 0.0074362923946311096
 29 0.00011711863142710499
 30 6.9988341329190683e-08
 31 -3.3829027087148151e-07
 32 -8.0563439456448659e-11
 33 -1.047714146725011e-05
 34 -2.078461113556266e-06
 35 1.3902036952466223e-06
 36 1.8289313504275267e-09
 37 -0.0065621388001090523
 38 -0.0001033396764677075
 39 -2.7893057632095004e-07
 40 -3.4697616732424826e-07
 41 -1.6265943877630028e-10
 42 1.0029220640756013e-05
 43 2.9876714532006688e-06
 44 1.5414795771860344e-06
 45 -5.1182673608822259e-10
 46 0.0074393334592814933
 47 0.00011764959168948651
 48 -3.5865395056008141e-07
 49 2.6779823092184755e-08
 50 -2.968090813519817e-10
 51 -1.2943182064555887e-05
 52 1.1807495005110332e-06
 53 1.8396371346961424e-07
 54 9.8255089005747904e-10
 55 -5.2691503123159841e-05
 56 0.00038224952885927666
 57 -0.00029739587895855622
 58 6.0599841688243002e-05
 59 1.4227007146494222e-07
 60 -5.2246265611676363e-06
 61 2.5072807059982602e-05
 62 1.3500773632604996e-06
 63 1.7520758464767708e-05
 64 4.5913499973459433e-09
 65 7.5396670004625229e-06
 66 -6.7782356098995352e-05
 67 4.4343028092756249e-05
 68 3.931948123369558e-05
 69 -4.0998596666066581e-08
 70 -1.0537846625150941e-06
 71 4.2572027799698016e-06
 72 -1.4850610564945819e-06
 73 -2.2109615475824855e-06
 74 -3.3114215857340157e-09
 75 -3.3825283528993685e-07
 76 1.6560365511685369e-06
 77 -2.4985420808490883e-06
 78 3.4961655750183987e-06
 79 -6.5560886216608344e-10
 80 -6.4255060639545435e-07
 81 2.458508304383993e-06
 82 4.4858065237678963e-07
 83 -1.3399892659007656e-07
 84 1.6912995660960638e-10
Sym= A
Ene= -103.77460097240723
Spin= Alpha
Occup= 2
 1 0.14408863290710522
 2 0.0022753095097210528
 3 6.8409567542628121e-06
 4 1.2691989085324353e-06
 5 -4.6633790942595545e-09
 6 -0.00024101533866354241
 7 -2.3898059623815065e-05
 8 -1.9046628973654091e-05
 9 2.1606100554332947e-08
 10 0.010256325979538065
 11 0.00016154253285762836
 12 4.9360884265809856e-07
 13 -1.4384719533987337e-07
 14 -2.5544643910206075e-10
 15 -1.4557929834496403e-05
 16 -3.4652521747334437e-06
 17 -1.5557202953269458e-06
 18 4.9973572912219395e-10
 19 0.9829704496952667
 20 0.015550014989607938
 21 3.536171386201122e-05
 22 3.905498271789041e-05
 23 -3.5345982042683173e-08
 24 -0.0017865753267467652
 25 -0.00014817528529448577
 26 -0.0001617533025633871
 27 1.3910086958881995e-07
 28 0.0016486724031334662
 29 2.5940826225114949e-05
 30 2.997687595321207e-09
 31 -9.2594572956274196e-09
 32 -5.4736517588193531e-11
 33 -1.7767936826250398e-06
 34 -4.644775368913271e-07
 35 -4.0573555164936901e-07
 36 8.1273739810541428e-10
 37 0.043255366430295185
 38 0.00068011597112330321
 39 2.2000040449229338e-06
 40 1.7799214110376946e-06
 41 -5.7266649812782523e-10
 42 -5.7321630909221116e-05
 43 -2.3397217506762645e-05
 44 -4.2076277756964328e-06
 45 2.0783122971900497e-08
 46 0.0085848395822406189
 47 0.00013551984660758662
 48 -2.9137227238959913e-07
 49 2.152009433235015e-07
 50 -1.2821420594538905e-10
 51 -1.3615118464833709e-05
 52 1.9253553614793913e-07
 53 -1.4143662910543653e-06
 54 -8.2930045749413202e-10
 55 -7.9531239650104775e-06
 56 4.4208674087651902e-05
 57 -2.8316618253059907e-05
 58 1.2758802425623955e-05
 59 9.7831794928727488e-09
 60 -1.2795069562651563e-06
 61 4.8531941552950559e-06
 62 1.583520617272253e-06
 63 -2.4663008741778087e-06
 64 -3.6693077859142474e-10
 65 -5.2945897428074564e-05
 66 0.00038094587615429337
 67 -0.0002005151330555054
 68 -0.00022487680131484319
 69 1.9211370166725774e-07
 70 -4.9864352281974376e-07
 71 5.9886034195464628e-07
 72 -1.6773435262589894e-06
 73 -1.8540666448589548e-06
 74 -3.8560489622385433e-10
 75 -2.5883151117141417e-06
 76 5.2510974612112132e-06
 77 5.9696988968277367e-06
 78 3.3320250980500734e-06
 79 -1.4119468762808897e-08
 80 -1.1999121770949524e-06
 81 5.3565034882555467e-06
 82 -2.0655788517288827e-06
 83 4.9272014871615449e-07
 84 -3.166556196294103e-09
Sym= A
Ene= -11.196110111924163
Spin= Alpha
Occup= 2
 1 1.6034578580546279e-05
 2 -5.7475366932690308e-05
 3 2.3839210256326055e-05
 4 -4.3162953790302458e-06
 5 -7.1888799465602005e-09
 6 -0.00054959145485135134
 7 -0.00047143942371753386
 8 9.1781931082221245e-05
 9 1.618297822109361e-07
 10 -2.0187494115531079e-06
 11 8.2927748374311947e-07
 12 -3.3246777188431929e-06
 13 -2.6648392112086788e-06
 14 -3.6114662938279639e-09
 15 -5.6656709672655447e-05
 16 2.2101161894114922e-05
 17 6.0826700415560705e-05
 18 5.580587309223388e-08
 19 -1.4840020380087621e-05
 20 4.2838461238899165e-05
 21 -1.3593884463634663e-05
 22 -7.985537340890481e-06
 23 1.6991633194248959e-09
 24 0.00030455266421355274
 25 0.00021102196382261705
 26 0.00016488105149874805
 27 -6.8737159999807975e-08
 28 -6.3721574963498668e-05
 29 0.00020588230938309087
 30 4.9243047486112091e-05
 31 6.2828487247146468e-05
 32 -2.1997364540767398e-08
 33 0.001734494167573051
 34 -0.00096921830088813569
 35 -0.0011558433563068496
 36 4.6730932898251615e-07
 37 -8.2137743288037297e-05
 38 0.00026830020139748144
 39 2.8268632035797953e-05
 40 -0.00010082051596201957
 41 -8.4250850676852001e-08
 42 0.0022915492048287589
 43 -0.00058069642757538754
 44 0.001905999886627766
 45 1.776528291424608e-06
 46 -0.00011413485372912353
 47 0.00037735434636264694
 48 0.00014533753709435271
 49 -2.9596235852149977e-05
 50 8.7876963621946513e-08
 51 0.0032705102268639
 52 -0.0027846046648355451
 53 0.00057571482971972713
 54 -1.8130456880510852e-06
 55 0.13990807598644953
 56 0.0050523821259804537
 57 0.00034072079866311462
 58 -0.00034104085786169046
 59 5.4296388782914584e-07
 60 0.024339938756612032
 61 0.0024981057860364296
 62 0.001781640701157234
 63 -7.9894665244549136e-05
 64 4.8118322174184232e-07
 65 -0.059803205172711309
 66 0.00044355992256998476
 67 0.0020449128433387568
 68 -0.0008264251292737808
 69 3.6139571076837609e-07
 70 -0.38855413958881668
 71 -0.0087046682727697257
 72 0.0012024841554797614
 73 -0.0022988436331005972
 74 1.5368698206015781e-06
 75 -0.51571397525471652
 76 -0.012572229082966657
 77 0.0017813772299645517
 78 0.0015191762808162118
 79 2.5969593685702326e-06
 80 -0.73829096457506194
 81 -0.019636377054922969
 82 -0.00083519850910472062
 83 -0.00023934835930689802
 84 -2.0365676053621991e-06
Sym= A
Ene= -11.196065982118736
Spin= Alpha
Occup= 2
 1 -1.4963833205507407e-05
 2 4.8402799462814161e-05
 3 -1.7142400219855544e-05
 4 1.0094582431964601e-05
 5 4.5147128301967846e-09
 6 0.00040946592379045209
 7 0.00033587522898692298
 8 -0.00013538131731817782
 9 -1.1167816938364337e-07
 10 5.0962298859937494e-05
 11 -0.00016763671340183162
 12 2.4956758764753034e-05
 13 -6.1317496320672219e-05
 14 -2.0692418407466621e-08
 15 -0.001448205786414139
 16 -0.00043468078320199513
 17 0.001184346962241747
 18 4.7164398736305311e-07
 19 -7.6826068668960464e-05
 20 0.00025433630330949029
 21 -6.9017842483944702e-05
 22 -7.2968320793050201e-05
 23 4.7165959952861274e-08
 24 0.0022115816257781639
 25 0.0013020364150925221
 26 0.001417444098205162
 27 -9.9977442681812448e-07
 28 8.2074790523841389e-05
 29 -0.00027660518265672815
 30 -7.503521506983621e-05
 31 -8.0817508385608671e-05
 32 3.0621813213265828e-08
 33 -0.0024536180449905641
 34 0.0014395834935449635
 35 0.0015755099851434975
 36 -6.7123826762510326e-07
 37 -7.6998647293534728e-05
 38 0.00025953489968325049
 39 3.6424232000417692e-05
 40 -9.6848455611299006e-05
 41 -8.5933469544125204e-08
 42 0.0023015612384162183
 43 -0.0006646189428371114
 44 0.0018883071213872326
 45 1.8179397365884214e-06
 46 1.4663398926191245e-05
 47 -5.0381054362277603e-05
 48 -1.8400391268974479e-05
 49 1.1326966121767521e-05
 50 -1.6092215733796072e-08
 51 -0.00045663363685740087
 52 0.00037491234752831996
 53 -0.00014780965485676741
 54 3.0574634332878941e-07
 55 -0.094629038851899966
 56 -0.002111571534572291
 57 -0.000355556586340704
 58 -0.0026571586171552099
 59 2.7083706265132216e-07
 60 0.33739623039148253
 61 0.0085281383774459679
 62 -0.0021034674735074047
 63 -0.00029391334012406409
 64 3.2645323761020127e-07
 65 -0.50969672440301284
 66 -0.013525042661980629
 67 0.0013196567347404085
 68 -0.0005967893905552674
 69 -6.2946127791678579e-07
 70 0.56246917989679124
 71 0.016610692892996368
 72 0.00055008713909848424
 73 -0.00047312903126105541
 74 -1.0189951215492398e-06
 75 -0.52473497149125992
 76 -0.015566683526251391
 77 -0.0018588443927528031
 78 -0.0005872122977462371
 79 2.230872666086938e-06
 80 0.10494847635118335
 81 0.0034062425090215084
 82 -0.00079764896737487972
 83 -0.003379631907913187
 84 5.7413130031370127e-07
Sym= A
Ene= -11.195984447848936
Spin= Alpha
Occup= 2
 1 -9.8209717102848654e-05
 2 0.00031927379946373275
 3 -0.00012163627435428132
 4 2.4665960281428988e-05
 5 4.2924780364383626e-08
 6 0.0027111414463724371
 7 0.0023091065919576183
 8 -0.00047436656911225357
 9 -8.9941361750723951e-07
 10 -8.8263972297790124e-05
 11 0.00028743727582644077
 12 -3.2269912960198819e-05
 13 0.00010706106644715635
 14 4.4458894800188088e-08
 15 0.0024449510570410441
 16 0.00063548194016021815
 17 -0.0020282682335002029
 18 -9.270655538493054e-07
 19 -7.5158714381511223e-05
 20 0.00024620529787199551
 21 -6.102426331669064e-05
 22 -7.4147894529485322e-05
 23 5.4637736006663818e-08
 24 0.002107302353925962
 25 0.001192155395909534
 26 0.0013904169573823709
 27 -1.0795819516397808e-06
 28 -4.6836187739167477e-05
 29 0.00015248564731218424
 30 4.2580231804303246e-05
 31 4.0924604793435103e-05
 32 -1.4007411953578955e-08
 33 0.001292335205201082
 34 -0.00077896982435799031
 35 -0.00080767713774102044
 36 3.2784217491999192e-07
 37 -1.6693444326633982e-05
 38 4.9130356898898217e-05
 39 8.8767395545952636e-06
 40 -1.5358831117052541e-05
 41 -1.2625234028959354e-08
 42 0.00035899924727696234
 43 -0.00012769132146584451
 44 0.00028446414752568151
 45 2.6944767634067062e-07
 46 6.6888922283910258e-06
 47 -3.1717161432356437e-05
 48 -1.5144299023232715e-05
 49 1.8684112826791731e-06
 50 -1.1369700121900853e-08
 51 -0.00037716951894468199
 52 0.00032459376777565634
 53 -5.6938501606998833e-05
 54 2.4302043935401352e-07
 55 -0.61133219560463581
 56 -0.014417229113816554
 57 0.001206823821562302
 58 -1.5897727170016206e-06
 59 -9.7957815695239524e-07
 60 -0.54860133535260547
 61 -0.01309180029228706
 62 -0.00066023177654004077
 63 -0.0013169422260352445
 64 -1.2557695855754456e-06
 65 -0.46804244206520196
 66 -0.011756932533773915
 67 -0.00076745258679062451
 68 0.0017187257212376063
 69 -1.4280752249200462e-06
 70 -0.27936334175037497
 71 -0.006761943882398154
 72 -0.0019411132274073737
 73 0.00092156946703591375
 74 3.0725074780171623e-08
 75 -0.067871595525584041
 76 9.1131155217780813e-05
 77 -0.0019588712209549679
 78 0.00015154882753896611
 79 -4.8931017391562717e-08
 80 0.097692719119425495
 81 0.0057538159171698113
 82 -0.00079117421450276338
 83 0.00086151786928031853
 84 -7.8585505228676983e-08
Sym= A
Ene= -11.195735314051285
Spin= Alpha
Occup= 2
 1 6.1272026607211204e-05
 2 -0.00021659851594476174
 3 8.6790248422316329e-05
 4 -1.8611973503125075e-05
 5 -3.3288578368393335e-08
 6 -0.0020186770343543986
 7 -0.0017183523836805459
 8 0.00036273306510590321
 9 6.870286579234398e-07
 10 -1.3720024116975326e-05
 11 4.9181643991626331e-05
 12 -1.0043299780042085e-05
 13 1.8513631572276672e-05
 14 4.8014341669606996e-09
 15 0.00046704457561215729
 16 0.00014683935804777885
 17 -0.0003818870086425626
 18 -1.3376811102856363e-07
 19 -1.7377150586499882e-06
 20 6.724947456091244e-06
 21 -5.1251610751478437e-06
 22 1.2841972144536113e-08
 23 -5.1572174483955162e-09
 24 7.0940022798838523e-05
 25 5.7798315634372783e-05
 26 3.5062021545095471e-05
 27 4.9964113203416878e-08
 28 -5.4241689041592044e-05
 29 0.00019929736097666666
 30 5.6737243856635523e-05
 31 5.9440663646437629e-05
 32 -2.9869123138372107e-08
 33 0.0019211525359238938
 34 -0.0011160443197390953
 35 -0.0012337782233407591
 36 6.202766284352151e-07
 37 -5.8701700279295224e-05
 38 0.00021662522610213782
 39 2.9908579998095269e-05
 40 -8.4367203918416658e-05
 41 -9.2495246765542066e-08
 42 0.0020967102056795241
 43 -0.00057020776660039892
 44 0.001723926505265207
 45 1.8733257132783358e-06
 46 7.9762019100975602e-05
 47 -0.00029552532626540308
 48 -0.00011980932502577515
 49 2.5208721290846339e-05
 50 -9.0836922441672945e-08
 51 -0.0028710655590968516
 52 0.0024344004791412364
 53 -0.00050998879403273828
 54 1.8265846603218796e-06
 55 0.45290183376130061
 56 0.016637299551382857
 57 0.00083195422321579978
 58 0.00012130243108969881
 59 1.5590538124603916e-06
 60 -0.10798793186816237
 61 -0.0038708542016059944
 62 0.0026832211922716074
 63 0.0010388902441609167
 64 2.1601545364563627e-07
 65 -0.019971458747514981
 66 -0.00051660840944879063
 67 0.0022645232554231007
 68 -0.0019699846091598568
 69 8.0326332150859684e-07
 70 -0.41733444465595976
 71 -0.018429359593084092
 72 -0.00074304169332456427
 73 0.0028205561822993875
 74 4.3974581314662501e-07
 75 -0.45471412582554832
 76 -0.020364669197418552
 77 -0.0014702132717282562
 78 -0.0023993529498682236
 79 2.4725983998650608e-06
 80 0.62104318183680818
 81 0.028124120175772271
 82 -0.0025115838377158975
 83 0.00039392242538129546
 84 1.0334776731872012e-06
Sym= A
Ene= -11.195713842600339
Spin= Alpha
Occup= 2
 1 1.6394340182768164e-05
 2 -5.797553332963691e-05
 3 2.396510506071093e-05
 4 -2.1895176613839154e-07
 5 -1.0048676808600562e-08
 6 -0.00053901814847308923
 7 -0.0004625764519238554
 8 7.1638474195036638e-05
 9 1.9396593111800158e-07
 10 7.0573745536293511e-05
 11 -0.00025234029795100625
 12 3.0285116624069186e-05
 13 -9.8904233177374287e-05
 14 -4.819957044660862e-08
 15 -0.0023748819277675196
 16 -0.00063528127275687667
 17 0.0019618669017035083
 18 9.7267569074782287e-07
 19 -7.553185173331111e-05
 20 0.00027442155267930272
 21 -7.4885170253616122e-05
 22 -8.4849295874855039e-05
 23 6.9970597486544532e-08
 24 0.0026216714567271347
 25 0.0015184173588138885
 26 0.0016939849709131818
 27 -1.3964300166517964e-06
 28 -5.3945559076726076e-05
 29 0.0001994692146295768
 30 5.3697105257891729e-05
 31 6.3389653227923236e-05
 32 -3.2712180093010398e-08
 33 0.0019370114261561778
 34 -0.0011115307298682532
 35 -0.0012607875781364621
 36 6.4843436220457512e-07
 37 5.4448527816471828e-05
 38 -0.00020148942543519807
 39 -2.379411377817676e-05
 40 8.0256019952486439e-05
 41 8.8114431445962111e-08
 42 -0.0019564069329345703
 43 0.00051782533591966423
 44 -0.0016152651706984658
 45 -1.7664751812724418e-06
 46 1.8303252851780755e-06
 47 -6.3784488365180211e-06
 48 -3.1762058551977991e-06
 49 -2.3064918179750596e-06
 50 1.0086573291192032e-09
 51 -5.8637968830323395e-05
 52 5.1753143013787618e-05
 53 -3.1445398676213016e-06
 54 8.2277213477124759e-10
 55 0.11846579031849418
 56 0.0045509810847019867
 57 -0.00048737839834275723
 58 -0.0036206416607334957
 59 1.0206319494236295e-06
 60 0.5259697557562335
 61 0.02059348409878323
 62 0.0021131439192451744
 63 -0.00065009275513628316
 64 2.0669505862579329e-06
 65 -0.57685109753662467
 66 -0.024103400703643252
 67 -0.0019867479787587321
 68 -0.00067296150706130887
 69 -1.1571941214804046e-06
 70 -0.4239625183001145
 71 -0.018649188215170445
 72 0.0023101697602954593
 73 4.9717774079882636e-05
 74 1.630165560959187e-06
 75 0.42494100384404665
 76 0.0189308902346829
 77 -0.0023674203316496737
 78 0.00094463155417466907
 79 -2.7923648296827106e-06
 80 0.01278711915438476
 81 0.00041885154627516955
 82 0.00058530800251935841
 83 0.0027764896392680231
 84 -2.1200453144320069e-07
Sym= A
Ene= -11.195557323967146
Spin= Alpha
Occup= 2
 1 -7.774883198788664e-05
 2 0.00028906962223725324
 3 -0.00011650926912171794
 4 2.4975729978605229e-05
 5 4.8515588857905929e-08
 6 0.0028127445301585597
 7 0.0023797852848550204
 8 -0.00050202574706060881
 9 -9.9148603342592925e-07
 10 6.8008624314685266e-05
 11 -0.00025430349675425009
 12 3.397067401640002e-05
 13 -9.9273105161560188e-05
 14 -5.137224593354438e-08
 15 -0.0024859593864271484