[Molden Format]
[Title]
generated by GANSU
[Atoms] (Angs)
S 1 16 0 0 0.102
H 2 1 0 0.96 -0.816
H 3 1 0 -0.96 -0.816
[GTO]
1 0
 s 3 1.00
    97.1095 0.535328
    26.2816 0.444635
    533.126 0.154329
 s 3 1.00
    33.3298 -0.0999672
    7.74512 0.399513
    2.51895 0.700115
 p 3 1.00
    2.51895 0.391957
    7.74512 0.607684
    33.3298 0.155916
 s 3 1.00
    0.56614 0.225595
    0.221583 0.900398
    2.02919 -0.21962
 p 3 1.00
    2.02919 0.0105876
    0.56614 0.595167
    0.221583 0.462001

2 0
 s 3 1.00
    3.42525 0.154329
    0.623914 0.535328
    0.168855 0.444635

3 0
 s 3 1.00
    3.42525 0.154329
    0.623914 0.535328
    0.168855 0.444635

[MO]
Sym= A
Ene= -90.7454
Spin= Alpha
Occup= 2
 1 -0.99415575399727207
 2 -0.017130358273859725
 3 -1.6994668515108636e-17
 4 -7.1560316859104875e-17
 5 0.00010369905740914058
 6 0.0026220680523091049
 7 1.2863898580561226e-17
 8 7.7583802658346468e-16
 9 -0.00042319480248890904
 10 -0.0006870730595486405
 11 -0.00068707305954758123
Sym= A
Ene= -8.6479166280018287
Spin= Alpha
Occup= 2
 1 0.36725652044576212
 2 -1.0467171003671267
 3 1.982224368904668e-16
 4 1.4660499322168944e-16
 5 0.0075226728255135249
 6 -0.055457911696623292
 7 -3.7771233581110855e-18
 8 -5.2045853076576015e-16
 9 0.0085647089880219185
 10 0.011454255166325604
 11 0.011454255166324725
Sym= A
Ene= -6.2804425635652033
Spin= Alpha
Occup= 2
 1 3.0489287124919642e-17
 2 -1.0983744006472899e-16
 3 -7.7582121682501426e-14
 4 -0.45717274877189573
 5 2.2091274660186381e-15
 6 9.0787219017666779e-17
 7 -7.5645556463073737e-15
 8 -0.055217285694214233
 9 2.2953752763372955e-16
 10 0.011743401197906008
 11 -0.011743401197906383
Sym= A
Ene= -6.2782665061253446
Spin= Alpha
Occup= 2
 1 0.0072431111499722612
 2 -0.021002903234431831
 3 -2.2523350841502756e-14
 4 -1.9668390847649325e-15
 5 -0.45723303850300667
 6 0.011152172812190362
 7 -2.4443097425162684e-15
 8 -1.3847934167949733e-15
 9 -0.054263290499835484
 10 -0.011975324450205395
 11 -0.011975324450205344
Sym= A
Ene= -6.274766066290451
Spin= Alpha
Occup= 2
 1 -1.889151162348849e-16
 2 5.5507930852538967e-16
 3 -0.4583900040123261
 4 7.7286361785540782e-14
 5 2.2547970861892003e-14
 6 1.3263865985409928e-16
 7 -0.045060203285363205
 8 9.342534282563663e-15
 9 2.2923991474687434e-15
 10 -2.033769834601254e-15
 11 2.2655286194281084e-15
Sym= A
Ene= -0.89828029523575326
Spin= Alpha
Occup= 2
 1 -0.082590836050814062
 2 0.28279366973313036
 3 6.0943930498104998e-17
 4 1.4662896183603083e-16
 5 -0.024123282651873502
 6 -0.79501281508797383
 7 -5.1246380591453192e-16
 8 -4.2779177001012919e-16
 9 0.11386778007378329
 10 -0.21076720035156732
 11 -0.21076720035156629
Sym= A
Ene= -0.50742267608701108
Spin= Alpha
Occup= 2
 1 4.1891351949151968e-16
 2 -1.087977091307544e-15
 3 -6.927898440030837e-17
 4 0.090573245261661939
 5 -4.980463134480237e-16
 6 3.9238351244627727e-15
 7 9.0235504376274685e-16
 8 -0.49434050275624702
 9 4.3262806115184709e-15
 10 -0.48117477517042212
 11 0.4811747751704194
Sym= A
Ene= -0.39450444170674159
Spin= Alpha
Occup= 2
 1 0.044629893803172289
 2 -0.14007215780792823
 3 4.2938111491282638e-17
 4 -4.373942706114214e-16
 5 -0.10562865065012896
 6 0.61599951597798197
 7 -1.6940091202582597e-16
 8 2.9023865456076407e-15
 9 0.62296851056549651
 10 -0.33752303626711966
 11 -0.33752303626712626
Sym= A
Ene= -0.27807797379262439
Spin= Alpha
Occup= 2
 1 -1.9158886236656251e-17
 2 7.4053039047122547e-17
 3 -0.14584502557842413
 4 -2.7439630441285124e-17
 5 -2.1214593521490125e-17
 6 -1.2868449221527826e-16
 7 0.94292028904024028
 8 1.7233859968379089e-16
 9 1.9140149456707135e-16
 10 2.3125799140594696e-16
 11 -7.2978784658567793e-16
Sym= A
Ene= 0.47338539348824171
Spin= Alpha
Occup= 0
 1 -1.1753095225851087e-15
 2 1.6045706213167657e-15
 3 3.5071473842881761e-17
 4 0.13016622643954609
 5 -6.7027790756417669e-16
 6 -6.2341018313299317e-15
 7 -9.8423391827706493e-17
 8 -0.96222845112619915
 9 5.8869081247367749e-15
 10 0.72859277882105433
 11 -0.72859277882104234
Sym= A
Ene= 0.54364371638103348
Spin= Alpha
Occup= 0
 1 0.04330629825769064
 2 -0.12157043743448472
 3 2.7971866455579149e-18
 4 1.0800900384810647e-15
 5 0.11503550655443903
 6 0.78598801449307898
 7 7.7292680722805618e-18
 8 -7.5057988606920235e-15
 9 -0.87340906078265423
 10 -0.8101763465230376
 11 -0.81017634652304782
