[Molden Format]
[Title]
generated by GANSU
[Atoms] (Angs)
Cl 1 17 0 0 0.073
H 2 1 0 0 -1.24
[GTO]
1 0
 s 3 1.00
    109.536 0.535328
    29.6447 0.444635
    601.346 0.154329
 s 3 1.00
    38.9604 -0.0999672
    9.05356 0.399513
    2.9445 0.700115
 p 3 1.00
    2.9445 0.391957
    9.05356 0.607684
    38.9604 0.155916
 s 3 1.00
    2.12939 -0.21962
    0.232524 0.900398
    0.594093 0.225595
 p 3 1.00
    2.12939 0.0105876
    0.594093 0.595167
    0.232524 0.462001

2 0
 s 3 1.00
    3.42525 0.154329
    0.623914 0.535328
    0.168855 0.444635

[MO]
Sym= A
Ene= -103.719
Spin= Alpha
Occup= 2
 1 0.9945047967256998
 2 0.015738002448367101
 3 6.1010566501389436e-17
 4 2.9180780139628302e-17
 5 -5.3587512722702972e-05
 6 -0.0018269535510096072
 7 -4.0587764872735436e-17
 8 -3.2517032339026382e-18
 9 0.00022375418914118942
 10 0.00052021486452117163
Sym= A
Ene= -10.400208002181802
Spin= Alpha
Occup= 2
 1 0.37706890979666408
 2 -1.0536175276154873
 3 1.2616569951990642e-17
 4 -2.7154893312011216e-18
 5 0.0049100214105695901
 6 -0.044789976760573773
 7 -4.4349309826408788e-17
 8 2.0757494689241518e-18
 9 0.0052751380064254977
 10 0.010278176075255675
Sym= A
Ene= -7.8448581371264101
Spin= Alpha
Occup= 2
 1 0.0048518994332015413
 2 -0.013749121606796953
 3 -6.6571604341198891e-14
 4 -1.6987376779462051e-14
 5 -0.44189838078777133
 6 0.0063777315608275044
 7 -5.21240852529722e-15
 8 -1.474004088054809e-15
 9 -0.042334284407252371
 10 -0.013943143513424055
Sym= A
Ene= -7.8385017638190959
Spin= Alpha
Occup= 2
 1 -1.4292870601649786e-16
 2 4.0125229024271879e-16
 3 -0.1996247118708489
 4 0.39511154243832608
 5 1.4835951964599595e-14
 6 4.4279685947144881e-17
 7 -0.015800448350946284
 8 0.031273380237605078
 9 1.1623853339511512e-15
 10 1.4323902374338539e-16
Sym= A
Ene= -7.8385017638190906
Spin= Alpha
Occup= 2
 1 -7.5483504836891023e-16
 2 2.1989845640701027e-15
 3 -0.39511154243832591
 4 -0.19962471187084888
 5 6.6871073230485769e-14
 6 -1.4550732048693583e-15
 7 -0.031273380237605057
 8 -0.015800448350946055
 9 6.7647514624713236e-15
 10 2.2121015065913375e-15
Sym= A
Ene= -1.0343386127483085
Spin= Alpha
Occup= 2
 1 -0.082697239686918819
 2 0.27408547631196051
 3 2.0280893557665212e-17
 4 1.7832070491553856e-17
 5 -0.018058531560032166
 6 -0.92196836829062445
 7 1.020548310918976e-16
 8 9.6752247831515365e-17
 9 0.11119561877281504
 10 -0.17765184313425605
Sym= A
Ene= -0.55584957240200983
Spin= Alpha
Occup= 2
 1 -0.030164428134778952
 2 0.09247725395387793
 3 9.8184983709656135e-16
 4 8.9190420224164686e-17
 5 0.089735337029651654
 6 -0.45402411390194686
 7 -7.4280682088027651e-15
 8 -7.1433922537317265e-16
 9 -0.61258533677992233
 10 0.50413997538291055
Sym= A
Ene= -0.42023640923335559
Spin= Alpha
Occup= 2
 1 2.644354280861982e-16
 2 -7.5604936073159744e-16
 3 0.12338803965668611
 4 0.009230798686332425
 5 -6.6379842471945103e-16
 6 3.8121134105970018e-15
 7 -0.92344395833345361
 8 -0.069083886097902739
 9 4.4817839614166428e-15
 10 -4.5973597355608015e-15
Sym= A
Ene= -0.42023640923335337
Spin= Alpha
Occup= 2
 1 2.2173810491645606e-18
 2 -7.92433044416877e-18
 3 0.0092307986863323938
 4 -0.12338803965668602
 5 -1.0826526918298092e-16
 6 -7.3989087341759124e-18
 7 -0.069083886097902891
 8 0.92344395833345383
 9 -1.6460337869698543e-16
 10 1.0274864300335044e-16
Sym= A
Ene= 0.37803758189576925
Spin= Alpha
Occup= 0
 1 0.02472610112345594
 2 -0.065956484383255159
 3 -3.8990336337490789e-17
 4 -7.389499989169304e-18
 5 0.097966765198738037
 6 0.51236767913323289
 7 2.6200460194821401e-16
 8 1.7880597477808536e-17
 9 -0.85277397442119851
 10 -1.127996544144414
