[Molden Format]
[Title]
generated by GANSU
[Atoms] (Angs)
H 1 1 0 0 -1.372
Br 2 35 0 0 0.039
[GTO]
1 0
 s 3 1.00
    0.623914 0.535328
    0.168855 0.444635
    3.42525 0.154329

2 0
 s 3 1.00
    2630 0.154329
    479.057 0.535328
    129.652 0.444635
 s 3 1.00
    219.835 -0.0999672
    51.0849 0.399513
    16.6144 0.700115
 p 3 1.00
    16.6144 0.391957
    51.0849 0.607684
    219.835 0.155916
 s 3 1.00
    5.94865 0.217544
    2.29517 0.916677
    19.5017 -0.227764
 p 3 1.00
    19.5017 0.00495151
    5.94865 0.577766
    2.29517 0.484646
 s 3 1.00
    1.39604 -0.308844
    0.515226 0.0196064
    0.227529 1.13103
 p 3 1.00
    1.39604 -0.121547
    0.515226 0.571523
    0.227529 0.549895
 d 3 1.00
    19.5017 0.219768
    5.94865 0.655547
    2.29517 0.286573

[MO]
Sym= A
Ene= -484.856
Spin= Alpha
Occup= 2
 1 -6.5238913936614225e-06
 2 0.99432187995501542
 3 0.014780835574214007
 4 5.9479035255100738e-17
 5 2.5861252862622646e-16
 6 -2.169888660710388e-06
 7 -0.029713496882512555
 8 -2.923356727127775e-16
 9 -3.6266121050196402e-17
 10 1.3159172522309417e-06
 11 -1.483858054891294e-05
 12 -1.4502413988396534e-17
 13 -3.5687789218721217e-17
 14 -3.1974000934913324e-06
 15 0.012526567024435512
 16 0.012526567024434491
 17 0.012527500759041254
 18 -5.599263286629828e-20
 19 1.4623585787188276e-19
 20 1.335548388516145e-19
Sym= A
Ene= -63.660529021185269
Spin= Alpha
Occup= 2
 1 -0.0073518993591243729
 2 0.42305587397728933
 3 -1.0597349818402244
 4 -9.1482742350039158e-16
 5 -1.5883514847051413e-15
 6 0.00044838903715434296
 7 1.7153288884745836
 8 2.9640763124381783e-15
 9 3.7689515762461182e-15
 10 0.00035366041137583417
 11 0.032315308802997003
 12 6.0028708009773027e-16
 13 5.2083281485090668e-16
 14 -0.0032282814046693097
 15 -0.80348866827113508
 16 -0.80348866827110044
 17 -0.80343193567539195
 18 2.6446345564546045e-18
 19 -4.7447081980618565e-18
 20 -6.7396824716187696e-18
Sym= A
Ene= -57.889263612963745
Spin= Alpha
Occup= 2
 1 -0.00053436895666677934
 2 -0.00076458767055254855
 3 0.0019203566396155426
 4 -5.8237996724158426e-12
 5 4.5938462897813923e-11
 6 0.28799408217563771
 7 -0.0025295654770620306
 8 -1.9079967801524554e-13
 9 1.5050076043428463e-12
 10 0.0094983488215158018
 11 0.00017577839370695253
 12 2.4446187180778916e-14
 13 -1.9281365761428188e-13
 14 -0.0014534605368899695
 15 0.0012089680671679747
 16 0.0012089680671680239
 17 0.0010689961981172611
 18 1.374768827177165e-16
 19 1.7815718999735549e-15
 20 -1.43286622541923e-14
Sym= A
Ene= -57.886845318879573
Spin= Alpha
Occup= 2
 1 6.3213182190827045e-16
 2 1.4191283055627731e-15
 3 -3.4413056981872934e-15
 4 0.28545328904088535
 5 0.038271619224714053
 6 -3.323080267353039e-13
 7 4.6895433418648349e-17
 8 0.0093521592753026978
 9 0.001253873374224957
 10 -1.0967980019899787e-14
 11 -3.9733062903183976e-16
 12 -0.0011981329802998009
 13 -0.00016063745265171016
 14 1.4305493546594524e-15
 15 -2.2218283842305953e-16
 16 1.5482827622167384e-16
 17 1.639806815289657e-17
 18 -7.137864572448337e-17
 19 -8.8750732516337493e-05
 20 -1.1899089521206809e-05
Sym= A
Ene= -57.886845318879558
Spin= Alpha
Occup= 2
 1 -8.6333627757135046e-14
 2 -1.2538037175635257e-13
 3 3.1067312674037626e-13
 4 0.038271619224714053
 5 -0.28545328904088529
 6 4.630279266855028e-11
 7 -2.7148116968291083e-13
 8 0.0012538733742251049
 9 -0.0093521592753030864
 10 1.5270844875466329e-12
 11 2.9862826622713155e-14
 12 -0.00016063745265128379
 13 0.001198132980299832
 14 -2.3368259330525345e-13
 15 1.350139511559189e-13
 16 1.3371392643897303e-13
 17 1.1165066637221452e-13
 18 2.7897882879252128e-17
 19 -1.1899089522145626e-05
 20 8.875073251385795e-05
Sym= A
Ene= -9.2155331702463315
Spin= Alpha
Occup= 2
 1 -0.0081452183258080273
 2 0.17028374623949877
 3 -0.52425306603218336
 4 -1.8199465663341331e-15
 5 -2.1795998501519821e-15
 6 0.0014249555538068607
 7 1.9309908199753685
 8 8.1587658171777411e-15
 9 1.0058077809505144e-14
 10 -0.0062698927450845167
 11 0.040254540579163965
 12 8.7273004689164948e-16
 13 9.1702594034673925e-16
 14 -0.0045015649587556604
 15 -0.38563759493836336
 16 -0.38563759493833466
 17 -0.38237527202852922
 18 1.2904653361144441e-17
 19 -5.489639259825867e-17
 20 -5.7371893801080272e-17
Sym= A
Ene= -6.9224274516171276
Spin= Alpha
Occup= 2
 1 -0.014413137069718239
 2 -0.0022145396753823288
 3 0.0067939623485964631
 4 8.4043637266126751e-13
 5 1.0566916537384742e-12
 6 0.12092148956388366
 7 -0.021930026491609259
 8 -3.7813900931908762e-12
 9 -4.7543760013286151e-12
 10 -0.54382482601953741
 11 0.0062534926594848429
 12 -2.9329718910753188e-13
 13 -3.6876450096957019e-13
 14 -0.050129363216939546
 15 0.00064695461012022771
 16 0.00064695461018107097
 17 0.0096345383007848499
 18 3.1186130118650411e-16
 19 3.3225199111482966e-14
 20 4.1784685112094814e-14
Sym= A
Ene= -6.9083919181029625
Spin= Alpha
Occup= 2
 1 -4.6547419419410481e-16
 2 -3.4626230832857085e-17
 3 7.9140469439880412e-17
 4 0.094524704778937138
 5 -0.075648423756731975
 6 4.0647083511864784e-15
 7 -6.4145364687140397e-19
 8 -0.42529570124857796
 9 0.3403655108493705
 10 -1.825689140245634e-14
 11 -3.594951747848592e-16
 12 -0.032981225611924736
 13 0.026394980412181267
 14 -2.1547469394542715e-15
 15 9.6872673982054288e-16
 16 -1.3559992938333592e-15
 17 2.1251507545132288e-16
 18 2.3699973547350025e-16
 19 0.0036360387110693933
 20 -0.0029099334174615249
Sym= A
Ene= -6.9083919181029403
Spin= Alpha
Occup= 2
 1 -1.6135511045179454e-13
 2 -3.1315438827993379e-14
 3 8.7284504387218565e-14
 4 -0.075648423756731933
 5 -0.09452470477893711
 6 1.3499023318796752e-12
 7 -6.6878774570990884e-14
 8 0.34036551084937039
 9 0.42529570124857763
 10 -6.0719454566629875e-12
 11 7.5892605752960158e-14
 12 0.026394980412180538
 13 0.032981225611924757
 14 -5.1386821016286004e-13
 15 -7.4874971616422382e-14
 16 -7.7194238868447824e-14
 17 7.3099643760326996e-15
 18 -4.9472825398883047e-16
 19 -0.0029099334174734195
 20 -0.0036360387110982049
Sym= A
Ene= -2.2736023931168989
Spin= Alpha
Occup= 2
 1 0.040024045988507909
 2 -0.00015269733732391726
 3 0.00040201108434987872
 4 -8.7334135059320729e-16
 5 -1.0986988872370998e-15
 6 -0.00042025689667502241
 7 -0.0046540518765351441
 8 3.9147363063802124e-15
 9 4.8983429534742847e-15
 10 0.0017871014980941422
 11 -0.012546145621135521
 12 2.6252015532162963e-16
 13 2.4407225528965102e-16
 14 0.01530777205635662
 15 -0.49824404126919475
 16 -0.49824404132036876
 17 1.0001868129167069
 18 3.9256785705477411e-14
 19 -1.9180488696753772e-14
 20 -7.8010509849626078e-15
Sym= A
Ene= -2.2681214065479662
Spin= Alpha
Occup= 2
 1 -5.9190489976296536e-16
 2 2.6916075555803752e-17
 3 -7.416650470252878e-17
 4 0.00020882133876907208
 5 0.00051135279780715668
 6 2.1040991100433231e-16
 7 7.7617805534338304e-17
 8 -0.00098821016786207624
 9 -0.0024198869576089947
 10 -1.0694745992957951e-15
 11 -4.7424756532253822e-16
 12 0.00010832522441865088
 13 0.00026526219449648299
 14 1.8739554902652866e-15
 15 2.3231773518350393e-14
 16 -8.7710870793117725e-15
 17 -1.4308469422101187e-14
 18 -6.0227287678605984e-14
 19 -0.37805720813346277
 20 -0.92577038462532901
Sym= A
Ene= -2.2681214065479622
Spin= Alpha
Occup= 2
 1 5.9222725751904859e-16
 2 -5.6451692074861055e-18
 3 1.3450360495018523e-17
 4 -0.00051135279780346117
 5 0.00020882133876679981
 6 -3.4966210498584371e-17
 7 -1.7057620787422723e-17
 8 0.0024198869575957462
 9 -0.0009882101678513422
 10 1.7270731207309352e-16
 11 -7.4748418631697472e-17
 12 -0.00026526219449734992
 13 0.00010832522441942509
 14 3.569642790098006e-16
 15 -2.2709742431729416e-14
 16 7.9145114917383526e-15
 17 1.4755225356724548e-14
 18 -2.1533559240403825e-14
 19 0.92577038462532868
 20 -0.37805720813346277
Sym= A
Ene= -2.2544158193456525
Spin= Alpha
Occup= 2
 1 -4.7445261929871e-13
 2 3.2813358872876447e-15
 3 -7.3548979902477449e-15
 4 3.6213063567433746e-17
 5 7.2511942618731469e-17
 6 4.141283610354071e-15
 7 1.0734878063788461e-14
 8 -2.0982815829638793e-16
 9 -3.5861848472822176e-16
 10 -1.4816233009956371e-14
 11 1.4458108903634041e-13
 12 -1.6458370306071607e-16
 13 4.5989473918889696e-16
 14 -2.9488533761365979e-13
 15 0.37722312642345779
 16 -0.37722312641062122
 17 -1.2815064683935585e-11
 18 -0.90015014517664738
 19 1.2860320915981398e-14
 20 6.1958032815373381e-14
Sym= A
Ene= -2.2544158193456516
Spin= Alpha
Occup= 2
 1 -9.7885554745165524e-13
 2 6.8137758257505057e-15
 3 -1.5153525120506313e-14
 4 -4.8555574635665135e-17
 5 1.4438730989734342e-16
 6 8.4367831331008829e-15
 7 2.2097856428588076e-14
 8 2.8210423152312826e-16
 9 -6.2158845982649033e-16
 10 -2.9963122379510883e-14
 11 2.9958894612018788e-13
 12 9.2675575588997263e-16
 13 8.600403588623972e-16
 14 -6.1265608288157397e-13
 15 0.77955289295653629
 16 -0.77955289292991858
 17 -2.6573320052739461e-11
 18 0.43557974716285996
 19 1.9877230271734006e-14
 20 -1.8552678801187855e-14
Sym= A
Ene= -0.89617858554316565
Spin= Alpha
Occup= 2
 1 0.24209325074803065
 2 -0.033478967021161647
 3 0.10609359970869936
 4 -6.7679580799546829e-16
 5 -8.5640100756349244e-16
 6 -0.0047666886783959929
 7 -0.42370220070016001
 8 3.0699318810521801e-15
 9 3.8702158123484144e-15
 10 0.025114702929484221
 11 0.87914142946695828
 12 -8.2267813705622238e-16
 13 -7.9414065365190219e-16
 14 -0.11731221932799822
 15 0.08486253085096658
 16 0.084862530851110396
 17 0.065437815072611913
 18 -1.500934044727022e-15
 19 -5.2664981845927796e-16
 20 -1.0882303918149294e-15
Sym= A
Ene= -0.48976770871636671
Spin= Alpha
Occup= 2
 1 0.5351795789722954
 2 0.014204250929764042
 3 -0.047109460396214255
 4 -2.8247351760069217e-15
 5 -3.5369143406903406e-15
 6 -0.020351997993348886
 7 0.16441868511780269
 8 1.271465175796807e-14
 9 1.5934062256412935e-14
 10 0.10800467652035065
 11 -0.50985272340719157
 12 6.0440539771348137e-16
 13 -1.0533651280732091e-17
 14 -0.59827967002338867
 15 -0.021162299967043094
 16 -0.021162299966596413
 17 -0.053749485865068398
 18 -2.1571694162509662e-15
 19 -6.2634571426648163e-16
 20 -1.9832781502331649e-15
Sym= A
Ene= -0.33435968240055453
Spin= Alpha
Occup= 2
 1 1.3848044489218621e-16
 2 1.9890815954169052e-17
 3 -5.7607685307139553e-17
 4 -0.024572519168197502
 5 0.015116645833868588
 6 -7.4237146771555888e-18
 7 5.8538326395617256e-17
 8 0.13087234340941506
 9 -0.080510705932381438
 10 3.8048348845223762e-17
 11 -5.2067456871883684e-16
 12 -0.82998969591668992
 13 0.5105972323412068
 14 -1.9715409193855977e-16
 15 5.0387940914553797e-17
 16 1.3742375908465906e-16
 17 -9.2341619821672068e-17
 18 4.8045849208752593e-16
 19 -0.00042229245527429824
 20 0.000259787994914361
Sym= A
Ene= -0.33435968240052755
Spin= Alpha
Occup= 2
 1 2.149568424156728e-15
 2 -2.1489490281847131e-17
 3 5.8651554048837957e-17
 4 0.015116645833868595
 5 0.024572519168197689
 6 1.1503161495423749e-17
 7 -1.3485149174326793e-16
 8 -0.080510705932381563
 9 -0.13087234340941539
 10 -4.7896515286990813e-17
 11 4.0299085656663108e-16
 12 0.51059723234120702
 13 0.82998969591669058
 14 2.144975212729959e-16
 15 -4.4491027183828603e-16
 16 2.4762340697133732e-16
 17 3.8073332306952763e-17
 18 -2.2852873979567642e-16
 19 0.00025978799491426928
 20 0.00042229245527451698
Sym= A
Ene= 0.39884308606312796
Spin= Alpha
Occup= 0
 1 -1.0965566650110632
 2 -0.0095996092722895991
 3 0.034586279547455995
 4 -1.5013275488302588e-15
 5 -1.8678383294514978e-15
 6 -0.022640957323306711
 7 -0.10339481308342777
 8 6.7400792513227097e-15
 9 8.3740998534323971e-15
 10 0.12103285580199717
 11 0.50074940238484533
 12 1.0000211634109577e-15
 13 1.5045072981183782e-15
 14 -0.93438162480990128
 15 0.004074298184821387
 16 0.0040742981849201413
 17 0.065126126645024554
 18 5.9635368515286255e-16
 19 -4.6389042258508432e-16
 20 -1.1330372607472137e-15
Sym= A
Ene= 74.020500171011136
Spin= Alpha
Occup= 0
 1 -0.085499460872488067
 2 -0.44710274849839032
 3 0.032306495489248382
 4 -4.8734357581339366e-15
 5 -7.7285017627563405e-15
 6 -0.00061852448392211512
 7 33.867556967124358
 8 2.2497480311004349e-14
 9 2.8181879822812648e-14
 10 0.0034259036650685954
 11 0.39862019864015902
 12 4.3506023506791498e-15
 13 4.5765366902813557e-15
 14 -0.037496577712470051
 15 -15.187375845422238
 16 -15.187375845421927
 17 -15.185675076677047
 18 -3.5786086092113257e-19
 19 1.3269277516355795e-17
 20 1.6266881209465471e-17
