[Molden Format]
[Title]
generated by GANSU
[Atoms] (Angs)
H 1 1 0 0 0
H 2 1 0 0 0.7122
[GTO]
1 0
 s 3 1.00
    3.42525 0.154329
    0.623914 0.535328
    0.168855 0.444635

2 0
 s 3 1.00
    3.42525 0.154329
    0.623914 0.535328
    0.168855 0.444635

[MO]
Sym= A
Ene= -0.590231
Spin= Alpha
Occup= 2
 1 0.54585556696841309
 2 0.54585556696841264
Sym= A
Ene= 0.70067857179642457
Spin= Alpha
Occup= 0
 1 1.2462806674506306
 2 -1.2462806674506306
