[Molden Format]
[Title]
generated by GANSU
[Atoms] (Angs)
N 1 7 -0.57591 0 0
C 2 6 0.58124 0 0
H 3 1 1.63967 0 0
[GTO]
1 0
 s 3 1.00
    18.0523 0.535328
    4.88566 0.444635
    99.1062 0.154329
 s 3 1.00
    3.78046 -0.0999672
    0.878497 0.399513
    0.285714 0.700115
 p 3 1.00
    0.285714 0.391957
    0.878497 0.607684
    3.78046 0.155916

2 0
 s 3 1.00
    13.0451 0.535328
    3.53051 0.444635
    71.6168 0.154329
 s 3 1.00
    2.94125 -0.0999672
    0.683483 0.399513
    0.22229 0.700115
 p 3 1.00
    2.94125 0.155916
    0.683483 0.607684
    0.22229 0.391957

3 0
 s 3 1.00
    3.42525 0.154329
    0.623914 0.535328
    0.168855 0.444635

[MO]
Sym= A
Ene= -15.3852
Spin= Alpha
Occup= 2
 1 0.9939807031380703
 2 0.029702999913810743
 3 0.0069539535437427103
 4 -1.8652060160269734e-17
 5 2.0508854248794066e-17
 6 0.00041497775058768686
 7 -0.010433205412123506
 8 0.0064920525433702948
 9 1.3904714118080449e-17
 10 -2.7204964377205783e-18
 11 -0.00048543553220209141
Sym= A
Ene= -11.079664925568874
Spin= Alpha
Occup= 2
 1 0.00048750402160303125
 2 0.0067523245072115094
 3 0.0013259246324083126
 4 7.8609888906730988e-17
 5 -4.574588167730244e-17
 6 -0.99289553111229267
 7 -0.031168998357085472
 8 0.0015178931764984955
 9 -8.763225162052636e-17
 10 -1.3126028844076145e-18
 11 0.0059925899955760387
Sym= A
Ene= -1.1799315698286332
Spin= Alpha
Occup= 2
 1 0.20094178483765351
 2 -0.6286944035196903
 3 -0.18009789916158708
 4 3.1295042931439791e-17
 5 1.2647618201158861e-16
 6 0.16516567486466904
 7 -0.35707485461121413
 8 0.17172260616054758
 9 -8.0695064895032626e-17
 10 2.2423711154389437e-16
 11 -0.06794166418312729
Sym= A
Ene= -0.75349418582675465
Spin= Alpha
Occup= 2
 1 -0.081311387416413763
 2 0.2803542757781079
 3 -0.035998295979721234
 4 -8.6161115273118474e-17
 5 7.5976484285973542e-16
 6 0.14589736588290983
 7 -0.46375431710590087
 8 -0.34135378249314802
 9 -2.2949845839938506e-16
 10 1.0323522368816763e-15
 11 -0.44899376783230216
Sym= A
Ene= -0.49362538416122187
Spin= Alpha
Occup= 2
 1 0.13200477577841663
 2 -0.68940140231209257
 3 0.53907516648294063
 4 1.7187505193034729e-16
 5 3.3516171368244195e-16
 6 -0.073516937337020194
 7 0.21806645006367659
 8 -0.27129184770661735
 9 -1.6370702764277931e-16
 10 7.0929042496030458e-16
 11 -0.15547785117718674
Sym= A
Ene= -0.44037497535157782
Spin= Alpha
Occup= 2
 1 -5.7174598933103464e-17
 2 3.0994085953884282e-16
 3 -4.7003140565871849e-16
 4 -0.18053024947616772
 5 0.47560819054174602
 6 -1.2518308101747017e-16
 7 2.3479295741623966e-16
 8 3.5284055237186703e-16
 9 -0.18545791387179611
 10 0.48859015646493426
 11 1.3499448936949287e-15
Sym= A
Ene= -0.44037497535157771
Spin= Alpha
Occup= 2
 1 3.7681075872415111e-17
 2 -2.0504100190753873e-16
 3 1.7269136221866316e-16
 4 -0.47560819054175291
 5 -0.18053024947616528
 6 2.2356550954114424e-17
 7 -4.6319927571580019e-17
 8 -1.6400349945888317e-16
 9 -0.48859015646492659
 10 -0.18545791387179816
 11 -1.8377631952095911e-16
Sym= A
Ene= 0.34683312251180465
Spin= Alpha
Occup= 0
 1 -9.908357674370057e-17
 2 4.8078093028686091e-16
 3 2.9771072191078389e-16
 4 0.62683891704501715
 5 -0.21480486749585556
 6 1.962796948794139e-16
 7 -1.4651810507684891e-15
 8 -4.7110698015666159e-16
 9 -0.68089894377755078
 10 0.23333013222230803
 11 1.7924611896001573e-15
Sym= A
Ene= 0.34683312251180493
Spin= Alpha
Occup= 0
 1 -8.6364072335187941e-18
 2 3.6420591338075605e-17
 3 -1.2272133737144432e-16
 4 -0.21480486749585359
 5 -0.62683891704502248
 6 -1.0170012886810224e-18
 7 5.890757769467694e-17
 8 7.8922364405143043e-18
 9 0.23333013222231036
 10 0.68089894377754556
 11 9.7974250334689712e-17
Sym= A
Ene= 0.55316236272574804
Spin= Alpha
Occup= 0
 1 -0.061084482514665119
 2 0.38571644433680208
 3 0.38903109852602885
 4 -1.4847427090599534e-15
 5 6.8182583664968578e-16
 6 0.19163850770020602
 7 -1.3036248999285962
 8 -0.284178856226392
 9 1.5061991908091804e-15
 10 -3.5073171412461862e-16
 11 1.1570433151634785
Sym= A
Ene= 1.3079163032357415
Spin= Alpha
Occup= 0
 1 0.12178393659141647
 2 -1.2320722568783407
 3 -0.86017680669767727
 4 -3.995143993956655e-16
 5 3.065513955782605e-16
 6 -0.06839426131317862
 7 0.75914618106527276
 8 -1.315746383461383
 9 3.1671687386291333e-16
 10 -1.3265573251073201e-16
 11 0.67040036228712441
