[Molden Format]
[Title]
generated by GANSU
[Atoms] (Angs)
F 1 9 0 0 0.096
H 2 1 0 0 -0.86
[GTO]
1 0
 s 3 1.00
    166.679 0.154329
    30.3608 0.535328
    8.21682 0.444635
 s 3 1.00
    6.4648 -0.0999672
    1.50228 0.399513
    0.488588 0.700115
 p 3 1.00
    6.4648 0.155916
    1.50228 0.607684
    0.488588 0.391957

2 0
 s 3 1.00
    3.42525 0.154329
    0.623914 0.535328
    0.168855 0.444635

[MO]
Sym= A
Ene= -25.9036
Spin= Alpha
Occup= 2
 1 -0.99474640236270595
 2 -0.02225497564361243
 3 2.845279751249854e-17
 4 2.3409037093842127e-19
 5 0.0018693987892639584
 6 0.0053345800412654496
Sym= A
Ene= -1.4597098476421146
Spin= Alpha
Occup= 2
 1 0.25069875704451106
 2 -0.94684568150848858
 3 8.1227168222440637e-17
 4 -1.5612192465530062e-17
 5 0.054702379855383287
 6 -0.15031562813228733
Sym= A
Ene= -0.57348918167985696
Spin= Alpha
Occup= 2
 1 0.078208472005347737
 2 -0.41056800956209277
 3 -1.6260086070000784e-16
 4 -2.0897438636752284e-17
 5 -0.48890277938901083
 6 0.53387154053765029
Sym= A
Ene= -0.46310773660669197
Spin= Alpha
Occup= 2
 1 5.1090085660010122e-18
 2 -2.4107892458568461e-17
 3 0.082049360142606845
 4 0.69560419031316645
 5 2.1691431086327813e-17
 6 3.5227651946277822e-17
Sym= A
Ene= -0.46310773660669191
Spin= Alpha
Occup= 2
 1 4.4134661790229752e-20
 2 9.6695049918141891e-18
 3 -0.69560419031316634
 4 0.082049360142606831
 5 1.1016216968590242e-16
 6 -1.0252741120092438e-16
Sym= A
Ene= 0.58928721156324371
Spin= Alpha
Occup= 0
 1 -0.080510028565649983
 2 0.51526802752008105
 3 -2.6982708828867289e-17
 4 -1.193488060232203e-17
 5 -0.57177358058834715
 6 -1.0538649687403681
