[Molden Format]
generated by GANSU
[Atoms] (AU)
H 1 1 0 0 0
[GTO]
1 0
 s 3 1.00
	82.64 0.002006
	12.41 0.015343
	2.824 0.075579
 s 1 1.00
	0.7977 1
 s 1 1.00
	0.2581 1
 s 1 1.00
	0.08989 1
 p 1 1.00
	2.292 1
 p 1 1.00
	0.838 1
 p 1 1.00
	0.292 1
 d 1 1.00
	2.062 1
 d 1 1.00
	0.662 1
 f 1 1.00
	1.397 1


[MO]
Sym= A
Ene= -0.187437
Spin= Alpha
Occup= 1
 1 -0.088360819134202767
 2 -0.25474164341063188
 3 -0.49500689027581829
 4 -0.29676012541558605
 5 2.8910338286107028e-15
 6 5.8983358509018012e-16
 7 -1.1782128858123349e-16
 8 -9.147189998115989e-15
 9 -2.4474057135261566e-15
 10 5.5880586676111152e-16
 11 2.6224385817074306e-15
 12 7.0566238168446374e-16
 13 -6.1516928188060331e-16
 14 -0.00072315552158545339
 15 -0.00072315552158478725
 16 -0.00072315552158489828
 17 6.7715527661966737e-17
 18 2.6227264289439548e-17
 19 -7.0502912873355903e-17
 20 -0.00096884531620332651
 21 -0.00096884531620452
 22 -0.00096884531620343754
 23 -2.4551386565435597e-17
 24 -2.8461324484042955e-17
 25 1.2981071014792294e-17
 26 3.4473798936293791e-15
 27 9.1080457615046478e-16
 28 -1.2627746319958497e-16
 29 1.2150405875167842e-15
 30 3.9843665148727036e-16
 31 -6.4250742982760254e-17
 32 1.2152227243128469e-15
 33 3.9832621958193093e-16
 34 -6.4381247572030934e-17
 35 3.3145890151714917e-20
Sym= A
Ene= 0.21252612086812242
Spin= Alpha
Occup= 0
 1 0.0017940808519806236
 2 -0.19134882044042617
 3 2.4103668217578798
 4 -1.9706921274521665
 5 1.0918774623144402e-15
 6 -9.2725588816654033e-15
 7 -1.6074387922580919e-16
 8 -1.8061044750009486e-14
 9 4.2248724524467072e-14
 10 3.8587563671958411e-16
 11 1.1942792096256478e-14
 12 -8.8277353505575742e-15
 13 -1.0887938545260808e-15
 14 -0.02313934848317677
 15 -0.023139348483176465
 16 -0.023139348483175771
 17 -1.7705637303624398e-17
 18 -9.7932037444224673e-18
 19 2.3910357230707601e-17
 20 -0.25473750700700709
 21 -0.25473750700700681
 22 -0.25473750700700809
 23 1.5194770032445523e-17
 24 1.2032459038167713e-17
 25 -2.5114410416017145e-17
 26 7.0814135200553979e-15
 27 -1.712198016830031e-14
 28 4.9554525835165904e-17
 29 4.1570131668644375e-15
 30 -7.6591138576872831e-15
 31 1.7160360125646265e-17
 32 4.1571746230049578e-15
 33 -7.6596719606047799e-15
 34 1.7181142153689887e-17
 35 -1.31876789006626e-20
Sym= A
Ene= 0.44380585890856949
Spin= Alpha
Occup= 0
 1 -4.9086154354652859e-13
 2 1.2350090941359556e-12
 3 6.0079436648611522e-13
 4 -8.7905565251632036e-14
 5 0.40172283292874472
 6 0.00052215794448248851
 7 0.0001434630521768087
 8 -1.8547373666949221
 9 -0.0024107811943163988
 10 -0.00066236285767859644
 11 1.4143420917296381
 12 0.0018383569436938396
 13 0.00050508912276030855
 14 -3.5277979719419288e-13
 15 -3.5723465376958134e-13
 16 -3.5951535091304898e-13
 17 -1.314449752569365e-16
 18 2.793872456118416e-16
 19 4.0714712968531702e-16
 20 -3.6808980798041407e-13
 21 -3.6328701059417426e-13
 22 -3.6784095058546189e-13
 23 1.0057892049006392e-16
 24 -9.2299071771739967e-17
 25 -5.6420671210653793e-16
 26 0.66067877044795653
 27 0.00085874797365393448
 28 0.00023594126385294664
 29 0.29546452840252246
 30 0.00038404376892452511
 31 0.00010551614093578984
 32 0.29546452840252235
 33 0.00038404376892612761
 34 0.000105516140933571
 35 5.8418199543474072e-20
Sym= A
Ene= 0.44380585890857288
Spin= Alpha
Occup= 0
 1 -1.9046337499296989e-16
 2 -8.5456440240149413e-15
 3 1.3328645164500576e-14
 4 -7.290466277938004e-16
 5 0.00053437418189695247
 6 -0.39948342658792824
 7 -0.042358400025639897
 8 -0.0024671830469097291
 9 1.8443981221236454
 10 0.19556694536927788
 11 0.0018813665450127409
 12 -1.4064578332589206
 13 -0.1491308513827643
 14 8.3293511552196606e-16
 15 3.06333099969513e-15
 16 -1.0195745374632922e-15
 17 -1.9529355420781628e-16
 18 -3.6714660336929097e-16
 19 -4.4997526865005697e-16
 20 -2.0584286399881944e-15
 21 -4.785041759624887e-15
 22 -3.5826026562616258e-15
 23 7.5863242390132787e-17
 24 -1.3898293903509704e-17
 25 -1.7786612219898929e-16
 26 0.00087883896186669692
 27 -0.65699581268082652
 28 -0.06966319400632591
 29 0.00039302873200093943
 30 -0.29381745961740796
 31 -0.031154327465578776
 32 0.00039302873200136216
 33 -0.2938174596174089
 34 -0.031154327465579976
 35 6.8303356649718828e-18
Sym= A
Ene= 0.44380585890857521
Spin= Alpha
Occup= 0
 1 -6.7691361309148752e-17
 2 1.54411485906124e-15
 3 -2.7608045314572795e-15
 4 1.7232231074160629e-15
 5 8.7605935545140908e-05
 6 0.042358552378222725
 7 -0.39948375823366805
 8 -0.00040447290739238325
 9 -0.19556764877471605
 10 1.8443996533180218
 11 0.00030843345699208284
 12 0.14913138776920762
 13 -1.4064590008814006
 14 -3.9101777134349382e-15
 15 -1.8703310243049011e-15
 16 5.0042110013714922e-15
 17 -4.2324277894672568e-16
 18 5.1400541294894408e-16
 19 2.217001766727636e-16
 20 5.3032186245065908e-15
 21 1.8584761923211369e-15
 22 -5.9372673840413975e-15
 23 6.6130703300482269e-16
 24 -2.4520014325804403e-15
 25 3.6300334645761845e-16
 26 0.00014407789908223715
 27 0.069663444567424362
 28 -0.65699635810984125
 29 6.443359528056918e-05
 30 0.031154439519910666
 31 -0.29381770354067832
 32 6.4433595280653111e-05
 33 0.03115443951991078
 34 -0.29381770354067949
 35 -9.4941906211573985e-18
Sym= A
Ene= 1.0772478338007005
Spin= Alpha
Occup= 0
 1 0.25457995771380382
 2 2.0459323728028851
 3 -5.3037502498265185
 4 1.5934378468878987
 5 2.5708991559284074e-14
 6 4.0242857831755965e-14
 7 9.1185794558375842e-16
 8 -9.5968229105851013e-14
 9 -1.8362625123603177e-13
 10 -4.1012875166328763e-15
 11 3.1907922533813991e-14
 12 3.0431927704707978e-14
 13 6.943415582202289e-16
 14 0.059979019426727162
 15 0.059979019426722235
 16 0.059979019426723637
 17 2.1214435120794135e-17
 18 -2.9704365681249037e-18
 19 -8.4334880879039327e-18
 20 0.95164199831951812
 21 0.95164199831952034
 22 0.95164199831952478
 23 -8.8576087617687305e-18
 24 -9.1545405403691907e-18
 25 -3.423236596824797e-17
 26 3.5837714461613492e-14
 27 7.1877719050963285e-14
 28 1.6031697992374522e-15
 29 1.4068118878959555e-14
 30 3.2137213403699435e-14
 31 7.1335661326847451e-16
 32 1.406812562845784e-14
 33 3.2137277624415984e-14
 34 7.132733850730241e-16
 35 6.5436421230930908e-20
Sym= A
Ene= 1.7919764095098947
Spin= Alpha
Occup= 0
 1 2.5338101591761523e-16
 2 1.2158268650751621e-15
 3 -2.1218156108421376e-15
 4 7.2653032115486154e-16
 5 -0.0020623315228569463
 6 -0.00038887006172118977
 7 -1.2856906607450009
 8 0.010096723260993775
 9 0.0019038226173628708
 10 6.2944597689095421
 11 -0.0025487563331282421
 12 -0.00048058957619531283
 13 -1.5889357155676453
 14 -2.704870858470986e-14
 15 -5.5216094753435918e-15
 16 3.1766820033502542e-14
 17 -1.0146572591669775e-14
 18 1.1655107223902329e-14
 19 -2.3590384059910614e-15
 20 1.2286505613442563e-13
 21 1.0342435357548888e-14
 22 -1.3210419898628439e-13
 23 4.3571233541057944e-14
 24 -9.5418752618062746e-14
 25 5.4609451594644579e-15
 26 -0.0034510600635117446
 27 -0.00065072658060834332
 28 -2.1514463820005285
 29 -0.0015433609792900951
 30 -0.00029101377379484652
 31 -0.96215607201982922
 32 -0.0015433609792910351
 33 -0.00029101377379424565
 34 -0.96215607201983011
 35 2.3814551449249137e-17
Sym= A
Ene= 1.791976409509932
Spin= Alpha
Occup= 0
 1 3.4007781729506525e-14
 2 -1.150535592956689e-13
 3 -2.3671898056804666e-14
 4 -9.8152260617267115e-15
 5 0.56089877984771219
 6 1.1568906070778016
 7 -0.0012496313503457188
 8 -2.7460375282932428
 9 -5.6638829273761884
 10 0.0061179212861402444
 11 0.69319326283504268
 12 1.4297566753152642
 13 -0.0015443713986086583
 14 3.8259280989644057e-14
 15 2.4065951442875909e-15
 16 2.8597966088890639e-14
 17 1.4719166897471822e-15
 18 1.6699181703005342e-15
 19 3.222589826245909e-15
 20 -1.9479900453587115e-14
 21 1.2072221427449664e-13
 22 1.1926446105668365e-14
 23 -1.6723392110850749e-14
 24 5.1907111130189771e-15
 25 -3.2631798724581868e-15
 26 0.93859564156171271
 27 1.9359152142597775
 28 -0.0020911055276394736
 29 0.41975273158341009
 30 0.86576760355217364
 31 -0.00093517082158662494
 32 0.41975273158340637
 33 0.86576760355218207
 34 -0.00093517082158446662
 35 1.9104670121980513e-18
Sym= A
Ene= 1.7919764095101858
Spin= Alpha
Occup= 0
 1 -8.1902289536104729e-14
 2 2.0050260852386255e-13
 3 1.2795932965134294e-13
 4 -2.5343528601716951e-14
 5 -1.1568894437719544
 6 0.56090003707697711
 7 0.0016860761320932984
 8 5.6638772320858051
 9 -2.7460436834123492
 10 -0.0082546593086579179
 11 -1.429755237630624
 12 0.69319481659660798
 13 0.0020837567443313322
 14 -7.3656646036983828e-14
 15 -4.8450039681425589e-14
 16 -5.3938731979223243e-14
 17 5.7043557035642152e-16
 18 4.6685666730074435e-16
 19 4.7650328820562617e-16
 20 -1.0250983920201639e-13
 21 -1.720078856654034e-13
 22 6.7903174838210569e-14
 23 -1.7201578709327834e-15
 24 -2.0058399222836804e-15
 25 -3.0362713769405841e-15
 26 -1.9359132676092514
 27 0.93859774538134055
 28 0.0028214425949575047
 29 -0.86576673298360984
 30 0.41975367244014855
 31 0.0012617874873763596
 32 -0.86576673298361162
 33 0.41975367244014217
 34 0.0012617874873949919
 35 -3.5537479933299265e-19
Sym= A
Ene= 2.0457275843925324
Spin= Alpha
Occup= 0
 1 -3.9973106060976231e-16
 2 -9.7903460645341608e-16
 3 1.6903137179159817e-15
 4 -9.1690668581339068e-16
 5 1.6122374130829382e-14
 6 -4.2467184220877874e-15
 7 -5.2773592185183705e-14
 8 -8.5484455013487721e-14
 9 2.9000704882807072e-14
 10 2.8147434380975652e-13
 11 3.2299193445149178e-14
 12 -1.518542502188911e-14
 13 -1.0392065196358724e-13
 14 0.036989435834213054
 15 0.00059131098320807805
 16 -0.037580746817421427
 17 -0.056388816664363073
 18 -0.091833773841750135
 19 -0.087430318129617907
 20 -0.27442919699126178
 21 -0.0043870092807339967
 22 0.27881620627199633
 23 0.41835560147079986
 24 0.68132612038265583
 25 0.64865633811067303
 26 2.1981868804823284e-14
 27 -5.8669520376191918e-15
 28 -7.4877536599848034e-14
 29 9.8832011092505955e-15
 30 -1.6723446822270163e-15
 31 -3.2768695211769158e-14
 32 9.5924816071013761e-15
 33 -1.2546703283142447e-15
 34 -3.304220835949009e-14
 35 1.1139853487845435e-17
Sym= A
Ene= 2.0457275843925395
Spin= Alpha
Occup= 0
 1 6.4419783454923392e-16
 2 3.1245158666584614e-15
 3 -5.3958389127844099e-15
 4 2.3451945070877406e-15
 5 -3.7663222854760138e-14
 6 3.1596361921836794e-14
 7 9.0004757907495756e-14
 8 1.9744813831239518e-13
 9 -1.7251297988782161e-13
 10 -4.7756939062849008e-13
 11 -7.1346541001940729e-14
 12 6.0211728406415314e-14
 13 1.8122790596390987e-13
 14 -0.079901135611473523
 15 -0.0013848553988164108
 16 0.08128599101029009
 17 -0.047820423162360418
 18 0.06165504918803752
 19 -0.079753594511509859
 20 0.59279640227076202
 21 0.010274413396014674
 22 -0.60307081566677645
 23 0.35478563087707188
 24 -0.45742643156181773
 25 0.59170177661145484
 26 -5.2566304237757426e-14
 27 4.8869361698022707e-14
 28 1.2226652651406938e-13
 29 -2.3280580079709263e-14
 30 1.9450620008183565e-14
 31 5.4707108993088737e-14
 32 -2.3569651163413222e-14
 33 2.0718083008576979e-14
 34 5.4919680672400488e-14
 35 1.7562324589484614e-17
Sym= A
Ene= 2.0457275843925404
Spin= Alpha
Occup= 0
 1 7.0496636448265255e-16
 2 3.3878690889525352e-15
 3 -5.8633441300518049e-15
 4 2.5789962178326139e-15
 5 -4.3375489408259852e-14
 6 2.9017580405547774e-14
 7 1.8867704857486354e-14
 8 2.289654431356558e-13
 9 -1.5514734850959768e-13
 10 -1.0151013864859097e-13
 11 -8.5396001690116436e-14
 12 5.1157282068268461e-14
 13 4.1033646492503265e-14
 14 -0.088055571742755578
 15 -0.0014471384230305218
 16 0.089502710165786287
 17 0.0085894062793613873
 18 -0.093517908157663462
 19 0.042197975534122328
 20 0.6532951719587905
 21 0.010736498851920502
 22 -0.66403167081071091
 23 -0.063725866986507104
 24 0.6938209210606826
 25 -0.31307199689091553
 26 -5.9411263365742676e-14
 27 4.6061375141142312e-14
 28 2.4252646531838692e-14
 29 -2.6484938642231184e-14
 30 1.9482463678770122e-14
 31 1.1679588157665228e-14
 32 -2.6195054086197767e-14
 33 1.9871879987589322e-14
 34 1.1032798482012295e-14
 35 -4.1948849121242885e-17
Sym= A
Ene= 2.0457275843925413
Spin= Alpha
Occup= 0
 1 -8.2048679339643796e-19
 2 5.9650424984976327e-16
 3 -1.0274500030542375e-15
 4 3.1946715233208007e-16
 5 -6.3026428879563293e-15
 6 -2.3414549231193892e-15
 7 -1.2570415568528151e-14
 8 3.4997057865684429e-14
 9 1.605077435836739e-14
 10 7.133714424058368e-14
 11 -1.4223845963924801e-14
 12 -8.7414798559503757e-15
 13 -3.4569057256844361e-14
 14 -0.0078112415569051696
 15 -0.00022735745083952649
 16 0.0080385990077445572
 17 0.12478320866776781
 18 -0.011433947401951468
 19 -0.072977711629298822
 20 0.057952566715911313
 21 0.0016867930331097053
 22 -0.059639359749020585
 23 -0.92578205047976425
 24 0.084829869209734884
 25 0.54143066389143801
 26 -8.0708834786271699e-15
 27 -2.156301506535009e-15
 28 -1.5178961855038029e-14
 29 -2.420634221084031e-15
 30 -1.2084791343595562e-15
 31 -3.1127907289883369e-15
 32 -4.6214982558451834e-15
 33 -5.024864782005537e-16
 34 -3.8406847338495425e-15
 35 5.8902467623690967e-17
Sym= A
Ene= 2.0457275843925471
Spin= Alpha
Occup= 0
 1 -2.7123415836437368e-13
 2 6.899010929942194e-13
 3 4.0219047372034306e-13
 4 -6.582899516132042e-14
 5 -8.1876420959173502e-14
 6 -1.224911146658674e-14
 7 4.7218678731988853e-15
 8 4.3414185626106497e-13
 9 6.5164137769684028e-14
 10 -2.241826197417828e-14
 11 -1.5780326939357566e-13
 12 -2.8646982762320359e-14
 13 8.7170302908867549e-15
 14 0.074457454350417271
 15 -0.14528147913341732
 16 0.070824024782403627
 17 -5.4510785332232477e-05
 18 -1.2064136283630402e-05
 19 9.8253427475263706e-05
 20 -0.55240905806303731
 21 1.0778612530052289
 22 -0.52545219494288831
 23 0.00040442225486118179
 24 8.9505318423471229e-05
 25 -0.00072895432426892223
 26 -1.1605477618441899e-13
 27 -1.3050450805063155e-14
 28 5.978204441497325e-15
 29 -5.1424759575239882e-14
 30 -6.4010077611617301e-15
 31 3.1856041810780794e-15
 32 -5.1293039885380634e-14
 33 -6.0396387486326515e-15
 34 1.9390981110082288e-15
 35 1.0952331386916686e-18
Sym= A
Ene= 3.0122546730347195
Spin= Alpha
Occup= 0
 1 -0.15558005201715441
 2 -0.2470981517458383
 3 5.186954616079837
 4 -1.0099853366415215
 5 -1.4392664024306528e-13
 6 -5.7404446640193184e-14
 7 2.7340428969870782e-16
 8 4.8359727685265387e-13
 9 2.2355533697248446e-13
 10 -1.0211501758949925e-15
 11 -8.4042120448717813e-14
 12 -1.6283180614823905e-14
 13 1.7250475428022904e-16
 14 -0.12993318535647416
 15 -0.12993318535646675
 16 -0.12993318535647114
 17 8.2538379398156262e-17
 18 -2.1111446395547986e-18
 19 -9.1416043680396053e-17
 20 -1.8920619385247743
 21 -1.8920619385248223
 22 -1.8920619385247739
 23 -7.4638549175785448e-17
 24 9.7350488988200709e-17
 25 1.9604790015351601e-16
 26 -2.102914738522194e-13
 27 -1.0306828791322075e-13
 28 4.1077793264666509e-16
 29 -8.0400717004270168e-14
 30 -4.6075682954342326e-14
 31 1.8115628606568282e-16
 32 -8.0400399267070552e-14
 33 -4.6075399576021758e-14
 34 1.8101935822582017e-16
 35 9.5782325333562759e-20
Sym= A
Ene= 4.4070961890952205
Spin= Alpha
Occup= 0
 1 3.0347692375482204e-13
 2 -8.3012454104626091e-13
 3 1.0677240458136917e-13
 4 -4.9677722781804515e-14
 5 1.0350110478653176
 6 2.0975477491816044
 7 0.39161140542742678
 8 -4.1429153914117629
 9 -8.3960097548991506
 10 -1.5675319817540279
 11 0.54739528773876367
 12 1.1093483070322536
 13 0.20711492732166126
 14 2.39763177439359e-13
 15 1.7265592183987091e-13
 16 2.0158229169514181e-13
 17 -2.116577255843728e-15
 18 1.0130278174835297e-14
 19 1.042160808801105e-14
 20 8.1114931891144216e-14
 21 6.7293034169444677e-14
 22 7.9108176085020895e-14
 23 9.6765941322784438e-15
 24 -1.4405315651302745e-14
 25 -6.0744296285657582e-15
 26 1.7500764413782055
 27 3.546695378836576
 28 0.66216674327007963
 29 0.7826579777485525
 30 1.5861303925124983
 31 0.29612997007830222
 32 0.78265797774854473
 33 1.5861303925125556
 34 0.29612997007831843
 35 5.2274786860959124e-17
Sym= A
Ene= 4.4070961890956184
Spin= Alpha
Occup= 0
 1 5.0843382570729497e-14
 2 -1.3537159704233017e-13
 3 1.5558529307930187e-14
 4 -7.6742236522203015e-15
 5 0.1700222172621077
 6 0.35279574585525386
 7 -2.3390043885176186
 8 -0.68056052370641851
 9 -1.4121616658515372
 10 9.3625061314611493
 11 0.089921127636419587
 12 0.18658615211285226
 13 -1.2370495782780202
 14 -1.4556466453251123e-14
 15 1.1276376156293407e-14
 16 1.0241861763673276e-13
 17 -2.6025281163289649e-14
 18 -7.7003580256547647e-15
 19 1.2843430721832886e-15
 20 2.1132258745308859e-15
 21 1.754298892266023e-14
 22 1.9053742831590689e-14
 23 -1.8603554916785218e-15
 24 3.2012217004546085e-14
 25 -6.8601657222645122e-16
 26 0.28748666746600593
 27 0.59653423479203094
 28 -3.9549688721366119
 29 0.12856794621577952
 30 0.26677821998018758
 31 -1.7687158493986312
 32 0.12856794621576617
 33 0.26677821998020168
 34 -1.7687158493986321
 35 -9.1413692604370073e-17
Sym= A
Ene= 4.4070961890969285
Spin= Alpha
Occup= 0
 1 -6.3059873521939029e-13
 2 1.6538583528283117e-12
 3 3.5407207841578404e-13
 4 -4.2265355957952075e-14
 5 -2.1270069343084499
 6 1.0488767915111825
 7 0.0035916285192510809
 8 8.5139282174425563
 9 -4.198416830630137
 10 -0.014376477529667326
 11 -1.1249286422881877
 12 0.55472858408231551
 13 0.0018995357883256681
 14 -5.4093784816103824e-13
 15 -4.7574905247355076e-13
 16 -3.3673103936080748e-13
 17 -2.3432349671942347e-15
 18 4.0713083605049226e-16
 19 1.5157418143307893e-15
 20 -2.7102062703988257e-13
 21 -2.8634136176646558e-13
 22 -4.2898394253951398e-13
 23 1.1406215493644989e-15
 24 -6.3456559088330992e-16
 25 -9.11219800427059e-16
 26 -3.5965072392783686
 27 1.7735217092780768
 28 0.006073002284060062
 29 -1.6084069337193418
 30 0.79314302030351702
 31 0.0027159291868623166
 32 -1.6084069337193543
 33 0.79314302030347372
 34 0.002715929186987192
 35 1.5146655758506756e-17
Sym= A
Ene= 6.039179979630056
Spin= Alpha
Occup= 0
 1 -9.5800213701128727e-18
 2 -1.6581866902639421e-17
 3 2.9720662335525037e-17
 4 -1.1706189485666456e-18
 5 -2.4267941054236944e-13
 6 6.2315339922349606e-14
 7 1.8297609779642212e-15
 8 8.3695437708034206e-13
 9 -2.2715494001701624e-13
 10 1.9119889296099937e-14
 11 -1.4102951095180875e-13
 12 3.5612801422123837e-14
 13 -5.0218984185184004e-16
 14 7.0042992671059691e-15
 15 -5.8500008087783951e-15
 16 -1.1316628129813998e-15
 17 -2.3270918470915323e-15
 18 2.3581007808786396e-15
 19 -1.916134818757502e-15
 20 -3.4426511654871364e-15
 21 1.3253105618160881e-15
 22 2.0947781814626329e-15
 23 3.6330892146990003e-16
 24 -5.8303068341697803e-16
 25 1.5519593964905036e-15
 26 -9.2353953583807364e-05
 27 0.067091333242073906
 28 0.29240896714259523
 29 0.065428668946587193
 30 -0.29230910200621629
 31 0.22900897583106972
 32 -0.065304763116383585
 33 0.20229663290819608
 34 -0.62131677248790196
 35 0.069038955867397542
Sym= A
Ene= 6.039179979630056
Spin= Alpha
Occup= 0
 1 -1.7441859415792593e-17
 2 -2.5849906125716843e-17
 3 4.3985210168979454e-17
 4 -1.2398817142179913e-18
 5 1.2153506836893731e-13
 6 4.9808372649444401e-14
 7 1.1675649418349125e-14
 8 -4.2721526131829501e-13
 9 -1.7530224858698165e-13
 10 -5.0466161842280125e-14
 11 7.1916804940112128e-14
 12 2.7816727093671913e-14
 13 5.1529477536356389e-15
 14 1.0164939402194889e-14
 15 1.0303771124182765e-15
 16 -1.1153980691663786e-14
 17 -4.4131660824800286e-15
 18 4.8161169030240679e-15
 19 -3.9328260149993196e-15
 20 -3.7046773012373257e-15
 21 -3.3176744795244647e-16
 22 3.9971596255980233e-15
 23 -5.7046809481210263e-16
 24 -1.2846670951825546e-15
 25 5.0754714325331445e-15
 26 3.4933214083672223e-05
 27 -0.020759801294085709
 28 0.46620946794578483
 29 -0.1050203194973701
 30 0.39126398863172179
 31 -0.31190831656915802
 32 0.10497345167292106
 33 -0.36341179249579059
 34 -0.31357732067926208
 35 -0.026516867180141221
Sym= A
Ene= 6.0391799796300578
Spin= Alpha
Occup= 0
 1 -4.939286670561476e-18
 2 -2.222310652445732e-17
 3 4.4246229316602752e-17
 4 5.1305624074558395e-20
 5 -5.9264880177418437e-14
 6 -1.8534377696242088e-13
 7 -1.3170848858194778e-13
 8 2.2421937393677584e-13
 9 6.2010210327057768e-13
 10 4.5251300859001153e-13
 11 -3.5010527908211383e-14
 12 -1.0531617703180286e-13
 13 -7.794144247275765e-14
 14 -2.0042512080549127e-14
 15 1.2539688179590785e-15
 16 1.8802628887291526e-14
 17 -1.1104599754605637e-15
 18 -1.8041479418980004e-15
 19 7.9914446864690198e-16
 20 6.811718510006137e-15
 21 -9.1300186751880931e-16
 22 -5.9242393668232614e-15
 23 -2.2542061573178796e-16
 24 2.8316976104512658e-15
 25 -1.5556673922589178e-16
 26 -0.00083719180534206987
 27 0.59017131058215078
 28 0.095748526087811786
 29 0.15807262647230944
 30 -0.41757688847005736
 31 -0.21689231014562008
 32 -0.1569494158003403
 33 -0.37422101282956638
 34 0.08843218229857816
 35 -0.027917837208612361
Sym= A
Ene= 6.0391799796300596
Spin= Alpha
Occup= 0
 1 -8.5138230584980032e-18
 2 -1.023950223424084e-17
 3 1.7090053676542028e-17
 4 7.9292535894952407e-20
 5 6.4097243021276245e-14
 6 -1.0277788031988281e-13
 7 2.4019444907143625e-14
 8 -2.2342610835481174e-13
 9 3.6898133164547702e-13
 10 -9.0061941518864798e-14
 11 3.7709132443615636e-14
 12 -5.9549369296280507e-14
 13 1.2602998922158968e-14
 14 -2.1295636817346309e-15
 15 2.34376185690317e-15
 16 -1.955809306935829e-16
 17 -6.389848513428196e-15
 18 -3.4460713477782657e-15
 19 8.0467695680216809e-15
 20 9.5955343892143442e-16
 21 -6.3390930672732347e-16
 22 -3.4141049313448119e-16
 23 -2.1324180144009456e-16
 24 2.5145738832219401e-15
 25 -2.4505228038986765e-15
 26 0.00012134209962398073
 27 -0.083550633960136969
 28 0.28671377462271075
 29 -0.22686267946641483
 30 -0.27382825793669224
 31 -0.49126530948071195
 32 0.22669988195663168
 33 0.38592319619520898
 34 0.1065984153956326
 35 0.032162636442034834
Sym= A
Ene= 6.0391799796300623
Spin= Alpha
Occup= 0
 1 -6.6029006274482412e-19
 2 -4.177230735440704e-19
 3 4.7191818562568252e-19
 4 1.0308624916802602e-19
 5 -2.5582396009444723e-14
 6 7.7986087136228376e-15
 7 6.5667660240290999e-15
 8 8.7325138554411731e-14
 9 -2.6750499297233775e-14
 10 -1.9665768117533126e-14
 11 -1.4857450675248862e-14
 12 4.4107934777890913e-15
 13 3.6745123762651288e-15
 14 1.0798002334359472e-15
 15 -6.0812675106045031e-16
 16 -4.7001302799712571e-16
 17 -2.3781089987290011e-16
 18 -1.3515668395151882e-16
 19 4.3058809087256226e-16
 20 -4.7652429383410058e-16
 21 1.6420129352547313e-16
 22 3.1107489845799747e-16
 23 -1.9975622988295856e-16
 24 1.0834285629825147e-17
 25 -4.2285475616598909e-17
 26 3.000078944570837e-05
 27 -0.020858984867500735
 28 0.021736510647131609
 29 -0.0084034110264970402
 30 -0.04340935377592977
 31 0.023101221231258951
 32 0.0083631607436748592
 33 0.071394618639175331
 34 -0.052263810471623658
 35 -0.64478114437596834
Sym= A
Ene= 6.0391799796300765
Spin= Alpha
Occup= 0
 1 5.1177244043437217e-13
 2 -1.3168288290890992e-12
 3 -4.0026774953527119e-13
 4 5.3641959626974556e-14
 5 1.9172579624494013e-13
 6 3.0933582737352206e-14
 7 1.9645444356230759e-14
 8 -6.9306867998796052e-13
 9 -1.049048503474893e-13
 10 -6.9881957688691457e-14
 11 1.137348845028738e-13
 12 2.0393310998809109e-14
 13 1.1957254471887608e-14
 14 3.5649873915073456e-13
 15 3.7022726901758699e-13
 16 3.5621804034035647e-13
 17 -1.0658923502072395e-15
 18 2.5190934477976059e-16
 19 -8.1664422174566894e-17
 20 3.0987242790930575e-13
 21 3.0421590922086819e-13
 22 3.0955772142901797e-13
 23 3.7881891929656209e-16
 24 -7.567540043963527e-17
 25 -1.0255128249814157e-16
 26 0.65040738291303424
 27 0.00092397310480938082
 28 -7.1788368645420355e-06
 29 -0.43630698672443841
 30 -0.00062031741072460093
 31 4.8820020275155693e-06
 32 -0.43630608603172205
 33 -0.00061932259222985213
 34 4.7494183696011349e-06
 35 2.0159610514804231e-07
Sym= A
Ene= 6.0391799796300827
Spin= Alpha
Occup= 0
 1 -4.8246823310827793e-18
 2 -1.7477850404595631e-18
 3 4.1012121865379309e-19
 4 5.7460128759510024e-19
 5 1.2812103997799828e-13
 6 -2.8054107323548e-14
 7 8.6551389834231101e-14
 8 -4.3543341806688457e-13
 9 1.1409770497014838e-13
 10 -2.9715599119523867e-13
 11 7.4067714453356975e-14
 12 -1.9713035459674662e-14
 13 4.8304312916776626e-14
 14 9.8927930722785598e-15
 15 2.3887267825822587e-15
 16 -1.2270576608978005e-14
 17 2.840835462599418e-15
 18 -1.0415495997105981e-15
 19 -1.7181592678505493e-15
 20 -3.5806826080577053e-15
 21 -3.9666762700876781e-16
 22 3.97096889798407e-15
 23 -9.1513228111012029e-16
 24 4.8116815753980476e-16
 25 2.0735839581650506e-16
 26 0.00035709218357806631
 27 -0.2497590157218007
 28 0.16831904439254522
 29 0.47480367337202151
 30 0.13366933716305984
 31 -0.26265431108051229
 32 -0.4752827628096789
 33 0.20141754512526933
 34 0.036830615979047444
 35 -0.0021285895486390666
Sym= A
Ene= 8.0988401287353877
Spin= Alpha
Occup= 0
 1 1.0992870593751429e-16
 2 2.5787339284885831e-17
 3 -4.0459989499695481e-17
 4 1.9527144520024803e-18
 5 3.5410873830133779e-15
 6 4.7698684717525719e-15
 7 2.5668291187191945e-14
 8 -1.7977943528026457e-15
 9 2.0803168343114231e-14
 10 2.3840840759491478e-14
 11 1.6817589351007564e-15
 12 3.0968328630342369e-15
 13 1.030883167937206e-14
 14 0.0061892173550033586
 15 -0.0013003693221972572
 16 -0.004888848032806291
 17 -0.76871781481159063
 18 -0.894329200324401
 19 -0.32770747727655697
 20 -0.0030223934328827652
 21 0.00063501206603350051
 22 0.0023873813668493105
 23 0.37538957544407181
 24 0.43672964558431121
 25 0.16003007656957521
 26 -1.5676426515688936e-15
 27 -1.6548458957000337e-14
 28 -3.2225472842911004e-14
 29 5.7445640637182441e-16
 30 -5.4513804933800266e-15
 31 -1.1389337532875113e-14
 32 -1.3506109342431289e-15
 33 -8.1632712111141694e-15
 34 -1.4011964971794519e-14
 35 -4.5233531858619856e-18
Sym= A
Ene= 8.0988401287354108
Spin= Alpha
Occup= 0
 1 -8.4177456644853204e-17
 2 -5.3521255201063921e-18
 3 1.4290636273190495e-17
 4 2.8402876235181786e-18
 5 1.7241004629838787e-15
 6 1.9675407644631441e-15
 7 1.0399168922056431e-14
 8 -4.2960589588485219e-15
 9 -1.8767707542888863e-14
 10 2.4738901752863768e-14
 11 1.0415864969313503e-15
 12 1.9949720550398992e-15
 13 4.1827725639032288e-15
 14 -0.0062032483031503778
 15 -0.00034614236461252541
 16 0.0065493906677630493
 17 -0.50108336611723014
 18 0.73781418569226132
 19 -0.83825887688288325
 20 0.0030292451950840425
 21 0.00016903242359111268
 22 -0.0031982776186751838
 23 0.24469508634314238
 24 -0.36029834171530878
 25 0.40934870747390456
 26 9.0745258373637569e-16
 27 9.0379295702137677e-15
 28 -2.3980847585744054e-14
 29 6.8478961287846825e-16
 30 1.2348063615958304e-15
 31 -1.0761282268421264e-14
 32 1.0286840698123156e-15
 33 7.4036600284418065e-15
 34 -4.9093354051547992e-15
 35 -9.6679378522626844e-17
Sym= A
Ene= 8.098840128735425
Spin= Alpha
Occup= 0
 1 1.744791305221094e-16
 2 -4.1626070768377861e-16
 3 7.5957400071546933e-16
 4 -2.7780188916182716e-16
 5 4.4168567875660555e-16
 6 1.6119587197144056e-14
 7 -3.1104303099049113e-14
 8 -5.7744506541871672e-14
 9 5.9315268156377487e-14
 10 9.1221073139666884e-15
 11 3.1398586897963405e-15
 12 5.5672909443837509e-15
 13 -1.43238446749784e-14
 14 0.080706017520872614
 15 0.0093857468815826857
 16 -0.090091764402455352
 17 0.80746139402371186
 18 -0.39029648805876382
 19 -0.82707271892195489
 20 -0.039411338034838587
 21 -0.004583361370344219
 22 0.043994699405182573
 23 -0.39430930836998185
 24 0.19059429887884455
 25 0.4038861476022696
 26 3.2699513767742715e-14
 27 -4.3071050003118449e-14
 28 1.7469773504719891e-14
 29 1.0930893705067592e-14
 30 -2.3716740445332897e-14
 31 2.8773190343945766e-15
 32 1.7656089279823344e-14
 33 -1.8943510329432516e-14
 34 6.7414268772260165e-15
 35 -1.9936552823006646e-18
Sym= A
Ene= 8.0988401287354428
Spin= Alpha
Occup= 0
 1 -2.0568913712562937e-13
 2 5.4793146662291355e-13
 3 2.1325383456758553e-13
 4 -3.44839062269786e-14
 5 -5.8192977657309413e-15
 6 -4.0912985688651594e-14
 7 1.4149843777507695e-14
 8 -1.0849271569501196e-14
 9 -1.5494501140359407e-13
 10 3.1830039851173117e-14
 11 -3.8060974595599274e-15
 12 -1.5793525698145913e-14
 13 7.2368888694991815e-15
 14 0.66751735873306961
 15 -1.2222633232234219
 16 0.55474596448987701
 17 0.0037501448259524063
 18 -0.00010174758558707724
 19 -0.0023984315216497489
 20 -0.32597014544009206
 21 0.59687040048367879
 22 -0.27090025504400955
 23 -0.0018313160524489707
 24 4.9686610899354844e-05
 25 0.0011712310724379307
 26 1.6468761046428529e-14
 27 1.17768418877995e-13
 28 -2.880332126279487e-14
 29 1.4840155263047e-15
 30 5.3000630305499899e-14
 31 -1.611419273699544e-14
 32 1.1368999451349493e-15
 33 5.1551385282582019e-14
 34 -8.7625251630289483e-15
 35 -2.6127441387038064e-18
Sym= A
Ene= 8.0988401287355778
Spin= Alpha
Occup= 0
 1 5.1793790813584283e-15
 2 -2.9834654353262275e-15
 3 5.8498215099695963e-15
 4 -2.6391417577384701e-15
 5 -1.1238573619540757e-13
 6 3.5850314317077857e-14
 7 -1.2381107082857184e-13
 8 -3.2297274615506939e-13
 9 1.8324344463503863e-13
 10 1.4986242348690136e-13
 11 -4.3568974380117044e-14
 12 9.9092668241425642e-15
 13 -6.7442266139620463e-14
 14 1.022749683282248
 15 0.064568200477989973
 16 -1.0873178837602444
 17 -0.0645523182865122
 18 0.040752137661490356
 19 0.063729244735339322
 20 -0.49944148814475958
 21 -0.031530724145584922
 22 0.5309722122903443
 23 0.031522968361860235
 24 -0.019900576466976003
 25 -0.031121035136195234
 26 2.6180632625735615e-13
 27 -1.1394074555399639e-13
 28 -8.9836599273803039e-15
 29 1.1648907003874571e-13
 30 -7.1242687885474591e-14
 31 1.3710892828309373e-16
 32 1.1862604139095186e-13
 33 -6.4081114821800523e-14
 34 5.9223005972057418e-15
 35 1.2332686486630569e-17
Sym= A
Ene= 9.6029439959172063
Spin= Alpha
Occup= 0
 1 -1.3090230692807663
 2 -0.43044556002598977
 3 2.4287695899948325
 4 -0.46052846777637602
 5 1.192163245971121e-12
 6 -1.9073409995201568e-13
 7 1.5625375366286242e-14
 8 -9.8703245699214549e-12
 9 1.7399447459761852e-12
 10 -1.4263495650211765e-13
 11 9.5268470153301712e-13
 12 -1.6005619588853631e-13
 13 1.3153902558015088e-14
 14 0.58561627126712301
 15 0.58561627126711291
 16 0.58561627126711424
 17 -1.9686243170765298e-16
 18 -1.6574810853833286e-17
 19 1.910343286709786e-16