[Molden Format]
[Title]
generated by GANSU
[Atoms] (Angs)
O 1 8 1.19649 2.37774 -0.00607
O 2 8 -1.28004 -2.38025 0.00162
N 3 7 1.534 -1.1543 0.00011
N 4 7 -1.40753 1.06107 -0.00303
C 5 6 0.77307 -0.03151 -0.00246
C 6 6 2.89501 0.62615 -0.0012
C 7 6 2.81659 -0.74441 0.00105
C 8 6 -0.70633 -0.02422 -0.00255
C 9 6 1.59709 1.09105 -0.00364
C 10 6 -2.93565 -0.66187 0.00203
C 11 6 -1.59497 -1.20129 0.00022
C 12 6 -2.77609 0.70144 -0.00023
C 13 6 4.1209 1.29208 -0.00038
C 14 6 3.95938 -1.54299 0.0043
C 15 6 -4.192 -1.26244 0.00578
C 16 6 -3.87531 1.55847 0.00113
C 17 6 5.29092 0.51024 0.00302
C 18 6 5.21052 -0.90009 0.00535
C 19 6 -5.31804 -0.41989 0.00734
C 20 6 -5.16063 0.98415 0.005
H 21 1 1.2077 -2.14521 0.00172
H 22 1 4.17714 2.37262 -0.00202
H 23 1 3.88752 -2.62294 0.00619
H 24 1 -4.29825 -2.33939 0.00771
H 25 1 -3.74523 2.63273 -0.00046
H 26 1 6.25957 0.99282 0.00398
H 27 1 6.11736 -1.49071 0.00808
H 28 1 -6.31092 -0.85046 0.01048
H 29 1 -6.03449 1.62253 0.00636
H 30 1 1.83161 3.10696 -0.00665
[GTO]
1 0
 s 3 1.00
    23.8089 0.535328
    6.44361 0.444635
    130.709 0.154329
 s 3 1.00
    5.03315 -0.0999672
    1.1696 0.399513
    0.380389 0.700115
 p 3 1.00
    5.03315 0.155916
    1.1696 0.607684
    0.380389 0.391957

2 0
 s 3 1.00
    23.8089 0.535328
    6.44361 0.444635
    130.709 0.154329
 s 3 1.00
    5.03315 -0.0999672
    1.1696 0.399513
    0.380389 0.700115
 p 3 1.00
    5.03315 0.155916
    1.1696 0.607684
    0.380389 0.391957

3 0
 s 3 1.00
    99.1062 0.154329
    18.0523 0.535328
    4.88566 0.444635
 s 3 1.00
    0.285714 0.700115
    0.878497 0.399513
    3.78046 -0.0999672
 p 3 1.00
    3.78046 0.155916
    0.878497 0.607684
    0.285714 0.391957

4 0
 s 3 1.00
    18.0523 0.535328
    99.1062 0.154329
    4.88566 0.444635
 s 3 1.00
    0.285714 0.700115
    0.878497 0.399513
    3.78046 -0.0999672
 p 3 1.00
    3.78046 0.155916
    0.878497 0.607684
    0.285714 0.391957

5 0
 s 3 1.00
    3.53051 0.444635
    13.0451 0.535328
    71.6168 0.154329
 s 3 1.00
    0.22229 0.700115
    0.683483 0.399513
    2.94125 -0.0999672
 p 3 1.00
    0.22229 0.391957
    0.683483 0.607684
    2.94125 0.155916

6 0
 s 3 1.00
    3.53051 0.444635
    13.0451 0.535328
    71.6168 0.154329
 s 3 1.00
    2.94125 -0.0999672
    0.683483 0.399513
    0.22229 0.700115
 p 3 1.00
    2.94125 0.155916
    0.683483 0.607684
    0.22229 0.391957

7 0
 s 3 1.00
    3.53051 0.444635
    13.0451 0.535328
    71.6168 0.154329
 s 3 1.00
    0.22229 0.700115
    0.683483 0.399513
    2.94125 -0.0999672
 p 3 1.00
    2.94125 0.155916
    0.683483 0.607684
    0.22229 0.391957

8 0
 s 3 1.00
    71.6168 0.154329
    13.0451 0.535328
    3.53051 0.444635
 s 3 1.00
    2.94125 -0.0999672
    0.683483 0.399513
    0.22229 0.700115
 p 3 1.00
    2.94125 0.155916
    0.683483 0.607684
    0.22229 0.391957

9 0
 s 3 1.00
    3.53051 0.444635
    13.0451 0.535328
    71.6168 0.154329
 s 3 1.00
    0.22229 0.700115
    0.683483 0.399513
    2.94125 -0.0999672
 p 3 1.00
    2.94125 0.155916
    0.683483 0.607684
    0.22229 0.391957

10 0
 s 3 1.00
    71.6168 0.154329
    13.0451 0.535328
    3.53051 0.444635
 s 3 1.00
    2.94125 -0.0999672
    0.683483 0.399513
    0.22229 0.700115
 p 3 1.00
    0.22229 0.391957
    2.94125 0.155916
    0.683483 0.607684

11 0
 s 3 1.00
    3.53051 0.444635
    13.0451 0.535328
    71.6168 0.154329
 s 3 1.00
    0.22229 0.700115
    0.683483 0.399513
    2.94125 -0.0999672
 p 3 1.00
    2.94125 0.155916
    0.683483 0.607684
    0.22229 0.391957

12 0
 s 3 1.00
    3.53051 0.444635
    71.6168 0.154329
    13.0451 0.535328
 s 3 1.00
    0.22229 0.700115
    0.683483 0.399513
    2.94125 -0.0999672
 p 3 1.00
    2.94125 0.155916
    0.683483 0.607684
    0.22229 0.391957

13 0
 s 3 1.00
    71.6168 0.154329
    13.0451 0.535328
    3.53051 0.444635
 s 3 1.00
    0.22229 0.700115
    2.94125 -0.0999672
    0.683483 0.399513
 p 3 1.00
    2.94125 0.155916
    0.683483 0.607684
    0.22229 0.391957

14 0
 s 3 1.00
    71.6168 0.154329
    13.0451 0.535328
    3.53051 0.444635
 s 3 1.00
    2.94125 -0.0999672
    0.683483 0.399513
    0.22229 0.700115
 p 3 1.00
    0.22229 0.391957
    0.683483 0.607684
    2.94125 0.155916

15 0
 s 3 1.00
    71.6168 0.154329
    13.0451 0.535328
    3.53051 0.444635
 s 3 1.00
    0.22229 0.700115
    0.683483 0.399513
    2.94125 -0.0999672
 p 3 1.00
    2.94125 0.155916
    0.683483 0.607684
    0.22229 0.391957

16 0
 s 3 1.00
    71.6168 0.154329
    13.0451 0.535328
    3.53051 0.444635
 s 3 1.00
    2.94125 -0.0999672
    0.683483 0.399513
    0.22229 0.700115
 p 3 1.00
    0.683483 0.607684
    2.94125 0.155916
    0.22229 0.391957

17 0
 s 3 1.00
    71.6168 0.154329
    13.0451 0.535328
    3.53051 0.444635
 s 3 1.00
    0.22229 0.700115
    2.94125 -0.0999672
    0.683483 0.399513
 p 3 1.00
    0.683483 0.607684
    0.22229 0.391957
    2.94125 0.155916

18 0
 s 3 1.00
    13.0451 0.535328
    71.6168 0.154329
    3.53051 0.444635
 s 3 1.00
    0.22229 0.700115
    2.94125 -0.0999672
    0.683483 0.399513
 p 3 1.00
    2.94125 0.155916
    0.683483 0.607684
    0.22229 0.391957

19 0
 s 3 1.00
    13.0451 0.535328
    3.53051 0.444635
    71.6168 0.154329
 s 3 1.00
    0.22229 0.700115
    0.683483 0.399513
    2.94125 -0.0999672
 p 3 1.00
    2.94125 0.155916
    0.683483 0.607684
    0.22229 0.391957

20 0
 s 3 1.00
    71.6168 0.154329
    13.0451 0.535328
    3.53051 0.444635
 s 3 1.00
    0.683483 0.399513
    2.94125 -0.0999672
    0.22229 0.700115
 p 3 1.00
    2.94125 0.155916
    0.683483 0.607684
    0.22229 0.391957

21 0
 s 3 1.00
    0.168855 0.444635
    0.623914 0.535328
    3.42525 0.154329

22 0
 s 3 1.00
    0.168855 0.444635
    0.623914 0.535328
    3.42525 0.154329

23 0
 s 3 1.00
    3.42525 0.154329
    0.168855 0.444635
    0.623914 0.535328

24 0
 s 3 1.00
    0.168855 0.444635
    0.623914 0.535328
    3.42525 0.154329

25 0
 s 3 1.00
    3.42525 0.154329
    0.623914 0.535328
    0.168855 0.444635

26 0
 s 3 1.00
    0.168855 0.444635
    0.623914 0.535328
    3.42525 0.154329

27 0
 s 3 1.00
    0.168855 0.444635
    0.623914 0.535328
    3.42525 0.154329

28 0
 s 3 1.00
    3.42525 0.154329
    0.623914 0.535328
    0.168855 0.444635

29 0
 s 3 1.00
    0.168855 0.444635
    0.623914 0.535328
    3.42525 0.154329

30 0
 s 3 1.00
    0.168855 0.444635
    3.42525 0.154329
    0.623914 0.535328

[MO]
Sym= A
Ene= -20.3117
Spin= Alpha
Occup= 2
 1 4.6399284823258019e-06
 2 2.2660399858829167e-06
 3 8.4152694964920675e-07
 4 -9.6193010772961333e-07
 5 1.4683061532807638e-09
 6 -0.99427336692360058
 7 -0.026010287297707251
 8 0.0010594244600642714
 9 -0.0040631208187043751
 10 4.84233422180261e-06
 11 1.5297623025983281e-05
 12 -0.00016215899990176249
 13 3.0545010143201769e-05
 14 0.00011308653677508049
 15 -1.9424482933258795e-07
 16 2.497946327469139e-07
 17 -7.3734663595277614e-05
 18 -4.2247285592511002e-05
 19 -5.6328278050948013e-06
 20 6.3913187893118105e-08
 21 -3.7573844629458724e-06
 22 9.3402673610881604e-05
 23 -8.7402195213661589e-05
 24 7.4407290447794927e-06
 25 -1.0240082062570536e-07
 26 1.704578945195623e-07
 27 -1.7403016839996557e-06
 28 1.7364678178282297e-06
 29 -9.364762047163342e-07
 30 3.9162726078613469e-09
 31 -5.1380948746652024e-08
 32 -9.8498086571047687e-07
 33 2.5468731409862836e-06
 34 -2.9666584885946591e-06
 35 1.103391082718089e-08
 36 2.4972336441194583e-05
 37 -0.00017443658542685289
 38 -0.00030854462950083124
 39 0.00031784694727783803
 40 -2.0400724478510356e-07
 41 1.2635236574961632e-07
 42 6.0592517078795571e-07
 43 6.3058568279070455e-06
 44 -6.3354112577100406e-06
 45 2.2643611394900351e-08
 46 3.0715791782826207e-05
 47 -0.00026731687334501759
 48 0.00010024095895987198
 49 0.00042238694809061233
 50 -9.7051838224157257e-07
 51 -0.00053307688097214262
 52 0.007165732084981234
 53 0.0014039650853119934
 54 -0.0053310422233030482
 55 6.4838238279232826e-06
 56 -9.1287001342037167e-06
 57 6.0503013464256475e-06
 58 0.00010625641245187582
 59 -3.0569932778311844e-05
 60 -1.8090225825385035e-07
 61 -3.8085715193094239e-10
 62 -1.2608227357769999e-07
 63 -5.8610036365597438e-08
 64 1.7234274033863851e-07
 65 -6.3897193661254864e-10
 66 2.4756806388536431e-07
 67 -6.1717008289242702e-07
 68 4.7429096191506865e-06
 69 -1.1768431636472218e-06
 70 8.4102722309505289e-09
 71 -2.881728277376625e-06
 72 0.00011092127264161365
 73 8.9463396398034223e-05
 74 5.6807004273771543e-05
 75 -2.8706972809903769e-07
 76 -1.5594495526516655e-06
 77 3.1967630321099142e-05
 78 1.3920434576186833e-05
 79 -1.3437681312202121e-05
 80 -1.442464061064167e-08
 81 1.2088737458733076e-10
 82 1.0555480469173472e-08
 83 -9.7993582264144528e-08
 84 3.5236616688743066e-08
 85 -2.3047475970508914e-10
 86 8.8373091302384296e-08
 87 -1.2811925988978129e-06
 88 6.1505268425048505e-07
 89 5.990622689619437e-07
 90 6.3137734334200787e-10
 91 2.0464658629073958e-08
 92 -2.3874925792522929e-06
 93 -7.8308953674377827e-06
 94 -9.3704914524980429e-06
 95 3.3886751414500193e-08
 96 1.3204569118602051e-07
 97 8.9557901952064412e-07
 98 -3.3626662409571374e-06
 99 7.6575035174891952e-08
 100 7.7014045696080498e-09
 101 0.00036845911417642376
 102 -2.6608837333951156e-09
 103 -7.6815419663899859e-06
 104 5.0061477638474854e-05
 105 -7.7783836116860648e-07
 106 2.0724854400975612e-08
 107 2.1204971892449909e-07
 108 -3.6289831073577178e-06
 109 -1.065780166432782e-06
 110 -6.5578731926095742e-08
Sym= A
Ene= -20.277830471103069
Spin= Alpha
Occup= 2
 1 0.99406579002027251
 2 0.026885333277995641
 3 0.0027375834461557062
 4 -0.00086895039779778869
 5 3.9105709019964831e-06
 6 4.9880880542499872e-06
 7 -2.8329196035849187e-06
 8 9.4633513864882261e-07
 9 -1.483070909651807e-06
 10 1.5345660461546818e-09
 11 -2.460371261569304e-06
 12 8.4681911655609752e-05
 13 -3.4666954131850063e-05
 14 -3.798991482274848e-06
 15 -1.3727034211470105e-08
 16 2.372410510804609e-06
 17 -8.3954542175642668e-06
 18 -2.3429419926103895e-05
 19 -1.9994486651542318e-05
 20 6.582504298148957e-08
 21 -1.9274694117387427e-05
 22 5.6018254977394353e-05
 23 -0.00033957995933257584
 24 0.00024555160200409804
 25 -6.2262570526056845e-07
 26 -3.517986942574989e-05
 27 0.00020530836404832148
 28 9.2510528824443024e-05
 29 0.00047993224172978975
 30 -5.915281330565339e-07
 31 5.2282164456480272e-06
 32 4.1288788372602249e-05
 33 9.5130233951722245e-05
 34 1.0227896192492105e-05
 35 1.1405643320759634e-07
 36 4.9183948418511754e-06
 37 -9.9061135227943026e-05
 38 -7.4383609423247824e-05
 39 5.8520815732113273e-06
 40 3.3836026588414076e-08
 41 0.00050419002180996243
 42 -0.0047975357669177701
 43 0.0011119168507293233
 44 -0.0040383093730382152
 45 7.4175426265498734e-06
 46 -7.4500621972475431e-08
 47 3.3090598062098523e-06
 48 6.9026110022092484e-07
 49 9.7059233083999246e-08
 50 -2.826522124906348e-09
 51 -4.4229711569914042e-09
 52 1.1303682744448442e-06
 53 5.7212643776986248e-06
 54 -6.4771592089074279e-06
 55 4.6002808669885205e-09
 56 1.0162249838662326e-06
 57 -1.0973759371737034e-05
 58 -9.73325274051124e-06
 59 2.8287545450026814e-06
 60 1.6187967122517885e-08
 61 6.0755377129572795e-06
 62 -0.00019798143823588865
 63 7.316464442792095e-06
 64 2.0606865427139733e-05
 65 -1.8409013795297234e-08
 66 1.3694768643480565e-06
 67 -2.7977398819468322e-05
 68 1.1566906485142189e-05
 69 -1.3006940151763139e-05
 70 4.300616018733023e-08
 71 3.1615926413106571e-08
 72 -3.6834381530179344e-07
 73 -1.9180035844681921e-07
 74 -1.1491934555330979e-07
 75 7.0014582419863851e-10
 76 8.9783222628857458e-08
 77 -1.7362666654328187e-06
 78 -3.1648604500950228e-07
 79 1.2126857475569165e-06
 80 -1.7684272135261451e-09
 81 -2.1938829349720936e-06
 82 3.3067784334018178e-05
 83 -1.9889160083903665e-05
 84 3.7081837268795391e-06
 85 -4.504855226107788e-08
 86 -2.4707725991369416e-08
 87 -1.3454618098541861e-06
 88 -1.3761545230683436e-06
 89 -9.7351538306044118e-07
 90 -6.8233974622092059e-10
 91 4.7354398933453224e-09
 92 -4.1075108254804896e-09
 93 -4.5102335228805556e-08
 94 -3.30188786988006e-08
 95 6.8501801667594705e-10
 96 -1.1709110025179915e-08
 97 2.550885851102138e-07
 98 1.4941304252306842e-07
 99 2.8015534834942585e-08
 100 -4.0728871148408567e-10
 101 -1.3522370436281303e-05
 102 0.00025018060102469081
 103 5.2621912423191302e-07
 104 -1.3626899013950733e-08
 105 -6.6661623331467079e-10
 106 -3.4182739874264512e-06
 107 6.6445963529474783e-07
 108 -2.4936324403845827e-08
 109 -1.8274510499690086e-08
 110 -0.0059365260106589478
Sym= A
Ene= -15.410041131923068
Spin= Alpha
Occup= 2
 1 -8.4221417480291166e-07
 2 -6.4815707478042881e-06
 3 -2.9956850902524093e-05
 4 -4.0579175408448038e-06
 5 -1.1096186004888208e-08
 6 2.4114829413723771e-05
 7 -0.00010693448557261515
 8 -9.2203309146435988e-05
 9 7.6515395930346982e-06
 10 -1.9523210931543647e-08
 11 -0.99317945775522731
 12 -0.033356996472995212
 13 -0.0006414742902628249
 14 -0.0014998057742191659
 15 -1.9850878576543811e-07
 16 4.9742595698717383e-05
 17 -2.0575364259134132e-05
 18 2.7244351339020382e-05
 19 3.1673789179592552e-05
 20 -1.6288185940924074e-08
 21 -0.00048324110127728054
 22 0.0064241553656777476
 23 0.0023585977908754403
 24 -0.0035096552914861919
 25 8.225652566474734e-06
 26 7.1820397926636592e-06
 27 -0.00042698191631894899
 28 0.00017975140602838002
 29 0.00023027459629230623
 30 -2.3757634890723084e-07
 31 -0.00048581141407307151
 32 0.0066051414493923663
 33 -0.0040906011388868926
 34 -0.0013321817270024628
 35 -2.806295930940672e-06
 36 1.4801303849348383e-05
 37 -0.00025544379375172591
 38 -0.00012734586131949103
 39 0.00026167557403147752
 40 -5.6220781113228458e-07
 41 3.6064014173647555e-06
 42 -0.00039198839548632133
 43 8.0521853335809238e-06
 44 0.00029949134028615801
 45 -5.6852538430016508e-07
 46 -8.3663898375445648e-08
 47 -2.8339691729239764e-06
 48 -3.1310266106308946e-06
 49 -3.7568286515380023e-06
 50 1.4817991363773673e-08
 51 -2.5046178643483702e-07
 52 4.7058309484644823e-05
 53 2.6489859214843192e-05
 54 4.496276086655068e-05
 55 -9.611308680464574e-08
 56 -7.3086625950209812e-07
 57 9.7775206731198381e-06
 58 7.3614640010146011e-06
 59 9.2132455613268655e-07
 60 -1.4498871921548001e-08
 61 -4.1025579760570751e-06
 62 1.6033717418828958e-05
 63 1.1670620595635757e-05
 64 -5.154467514400569e-05
 65 1.0675505871908039e-07
 66 1.9004607251487809e-05
 67 -0.00027841217705541044
 68 0.0002791708815808827
 69 0.00018461121316696127
 70 1.7190731697005451e-08
 71 2.2793453811074612e-08
 72 -8.3916982833315667e-07
 73 -5.5070581227357331e-07
 74 -2.3637898291037197e-07
 75 8.9239063286564426e-10
 76 1.1858120590628872e-08
 77 1.7210453505049142e-07
 78 -5.3475268490123442e-07
 79 -7.1102477263386389e-07
 80 1.9484109072819611e-10
 81 -2.7228483716786041e-06
 82 -6.6521690169769617e-06
 83 -2.7354878120242596e-05
 84 -1.3701406704131158e-05
 85 -3.1992904314499842e-08
 86 -3.0163988708746936e-06
 87 -1.4411652278544211e-05
 88 -1.6768051121241293e-05
 89 4.4618170814332756e-05
 90 -1.0677236033966007e-07
 91 -1.0910469718540705e-08
 92 6.9770376150200974e-08
 93 1.3734884444777673e-07
 94 1.0283414967975621e-07
 95 5.7786004046238403e-11
 96 -6.0244180880674845e-09
 97 -1.695901716843116e-07
 98 -1.003757418481284e-08
 99 -6.8332376144479158e-08
 100 4.6097090273649786e-10
 101 0.0059959598518530234
 102 1.591586034093406e-05
 103 7.7271562279947686e-05
 104 -3.7805622868343899e-08
 105 -1.1543768471754348e-08
 106 1.3902682843789789e-05
 107 1.6718207095590824e-05
 108 5.9818430344129143e-08
 109 1.3426442405113266e-08
 110 5.9473659963019866e-06
Sym= A
Ene= -15.333351286766026
Spin= Alpha
Occup= 2
 1 3.2930974443821049e-06
 2 8.8214590710887543e-06
 3 4.6128403244538729e-05
 4 -7.6625313778726124e-07
 5 -4.1462610693640327e-09
 6 6.505969211489842e-06
 7 -2.4211155244175024e-05
 8 -3.3443918342875626e-05
 9 -1.28144768072664e-05
 10 5.1734525839336472e-08
 11 5.5224036070890576e-05
 12 1.2020213514238777e-05
 13 2.7669637945641177e-05
 14 1.2344180604203705e-05
 15 -1.1754210910403092e-08
 16 0.99356674142949708
 17 0.030826961820652355
 18 -0.0010344738149972786
 19 -0.0053284159168054731
 20 9.160427630720975e-06
 21 -8.2728308045226762e-06
 22 0.00025632260679965378
 23 -7.9613693342133393e-05
 24 0.00024305373347562848
 25 -1.2681718171998794e-07
 26 1.7723832985045762e-06
 27 -2.2081963262000635e-05
 28 1.3364783965698348e-05
 29 -8.2599540415592782e-06
 30 5.8765602066952353e-08
 31 7.9045298510363947e-07
 32 -9.4521674575227852e-06
 33 6.8745100496218496e-06
 34 2.1569111312981584e-06
 35 5.7002899869028792e-09
 36 0.00052512442298455891
 37 -0.0079714896693363069
 38 0.0029495712862112286
 39 -0.0040647825071800691
 40 1.2260299939727998e-06
 41 1.0107290993528764e-05
 42 -0.0001140794988369336
 43 0.00010362515178013941
 44 1.3250270005330851e-05
 45 -7.5945295662849611e-08
 46 -9.1939883007721407e-06
 47 0.00048344839193805155
 48 0.0002264549719439535
 49 0.00023689364437154241
 50 -6.6802149600594199e-07
 51 -2.2138893900995746e-06
 52 0.00044263406514677027
 53 9.9305363267607048e-05
 54 0.00026934813145749342
 55 -4.4322503304138832e-07
 56 0.00051528418949169607
 57 -0.0060626360310256965
 58 -0.0042174840943010657
 59 -0.00078450996824198265
 60 8.1468901823556658e-06
 61 1.796532662939836e-08
 62 2.5047169671854165e-07
 63 -6.6510900392089723e-07
 64 9.4531294449850284e-07
 65 -1.6464255889262646e-09
 66 -1.3522332190571873e-08
 67 -5.9598810997868639e-08
 68 -7.492642159427975e-07
 69 -7.3410577270316945e-07
 70 1.5785952577442746e-09
 71 3.9295894527656525e-06
 72 -1.1232152834956789e-05
 73 1.4255286403007919e-05
 74 -5.4240037166776346e-05
 75 5.1974991124310536e-08
 76 -1.1531347900566237e-05
 77 0.00012416494557998778
 78 0.000196008532152491
 79 0.00027384525817483881
 80 -6.0053677219332806e-07
 81 1.1772921916192825e-08
 82 1.0978890003818393e-07
 83 1.1128265657716059e-07
 84 2.1106751215992008e-07
 85 -7.7185881820064454e-10
 86 7.6116979463589456e-09
 87 9.3316465625129895e-08
 88 7.6793949437274346e-08
 89 -1.7108601591804057e-07
 90 -2.3692799404652482e-09
 91 2.8007395136445419e-06
 92 5.2706208720266683e-06
 93 -2.8506754231249292e-05
 94 -1.5244640184952906e-05
 95 9.9716888520535756e-08
 96 3.0214726838024162e-06
 97 2.2420874874630764e-05
 98 -9.0128061548579694e-06
 99 3.9471022042373361e-05
 100 -2.7099779503246259e-08
 101 -2.1605103084278398e-05
 102 1.8001704775535656e-07
 103 3.2243524100173119e-07
 104 -1.8366616039106422e-05
 105 -0.00018899485651226487
 106 -1.13065889067256e-07
 107 -6.4153549698547911e-08
 108 -1.4388723530010256e-05
 109 -1.4734541320365982e-05
 110 -2.3592531198270504e-05
Sym= A
Ene= -11.13639551049225
Spin= Alpha
Occup= 2
 1 -2.1151342372035944e-08
 2 -6.9674165222597774e-06
 3 -7.4786157288571331e-06
 4 2.9005539195128116e-06
 5 -7.5668801790538123e-09
 6 -0.00013754733179955234
 7 0.0056121596837324693
 8 -0.00031426578988035349
 9 0.0011175976593629196
 10 -1.0548803684979503e-06
 11 2.7184958403208875e-06
 12 -6.9299908696969086e-05
 13 -5.6310571555947869e-05
 14 5.4881843182981239e-05
 15 -6.9069443969398715e-08
 16 -8.2136451390661626e-06
 17 -0.00033456335432907548
 18 4.361846078877643e-06
 19 9.6364237599989177e-05
 20 -2.5306990632004166e-07
 21 0.0001798636244366972
 22 -0.00019825612554181374
 23 6.4490509565794766e-05
 24 1.7722305792107646e-05
 25 -1.1456680823087032e-08
 26 1.0585675503809428e-06
 27 6.5476533246834468e-06
 28 -2.80356066782429e-06
 29 4.2742024154804384e-06
 30 -8.8358868941064151e-09
 31 1.8781503443238278e-06
 32 2.2227818292549208e-05
 33 -1.3179005495947205e-05
 34 -6.3968524143424758e-06
 35 -2.7028306996272497e-08
 36 0.001398712314875604
 37 0.0062978201357657346
 38 -0.0020069177809453275
 39 -0.0029573492217333467
 40 6.9811344392817114e-06
 41 6.9977584423167396e-05
 42 5.1062832734817869e-05
 43 -4.4493385519506986e-05
 44 7.6304450892892931e-07
 45 -5.4350356531212439e-08
 46 -4.7340838761092032e-05
 47 0.0064728761481564071
 48 0.0032459393044854171
 49 -0.001669696613421003
 50 -3.5813094251678952e-06
 51 -0.99241819690913458
 52 -0.033971260805621933
 53 0.00035259804272630093
 54 -0.00060152887881364722
 55 -2.4568437384366544e-06
 56 0.00078522568465513268
 57 -4.7276709881009967e-06
 58 0.00026480138709616014
 59 -8.3980820840481814e-05
 60 -5.2591430554883354e-07
 61 -4.4097317839116701e-07
 62 -8.9252807509709371e-07
 63 7.7030734268328402e-07
 64 -2.1024876771197039e-07
 65 1.1745327847659625e-09
 66 -1.823814190838375e-06
 67 -7.0749623645276294e-07
 68 4.0658845648377925e-06
 69 5.2297783611946889e-07
 70 6.2664194021826957e-09
 71 -9.927061927623018e-06
 72 -0.00031171208527118048
 73 -0.00010316471105349664
 74 8.004552671198056e-05
 75 8.1278169300876558e-08
 76 3.7552297588442992e-05
 77 0.00011402291962568771
 78 3.6340204787362904e-05
 79 -6.7595488339142011e-05
 80 -3.9526156182193253e-09
 81 2.8091923800469144e-07
 82 7.6163789410780309e-08
 83 -2.8306460194392114e-07
 84 -9.1929858185054482e-08
 85 2.0237835472078802e-12
 86 -1.2399461987693418e-08
 87 -1.1211396594098836e-06
 88 4.5516642626280359e-07
 89 5.8850567464371116e-07
 90 7.0706904974336241e-11
 91 3.9116046362965275e-05
 92 4.6994109408340214e-05
 93 3.9531423532978794e-05
 94 1.0408902381016302e-05
 95 -1.2618166243156398e-07
 96 2.3487002826795564e-05
 97 -4.6996026051651764e-06
 98 1.2115852012381981e-05
 99 -6.2564416951904377e-06
 100 -2.5458258818628516e-08
 101 0.00025894226626980662
 102 1.6910709468399369e-07
 103 -4.966011121187575e-06
 104 0.00019900478088555004
 105 8.13581202574906e-06
 106 3.3278943132743293e-08
 107 2.2643940351693522e-07
 108 6.1722457239904245e-06
 109 6.9799968929900445e-06
 110 1.9821723024746827e-06
Sym= A
Ene= -11.085152655890038
Spin= Alpha
Occup= 2
 1 1.3976973217684521e-06
 2 1.7450446042978744e-05
 3 2.8011797116537764e-05
 4 -3.97262361559522e-07
 5 -4.7107854699944768e-09
 6 -2.8033076532770126e-05
 7 0.00026126537667990618
 8 0.00010288181617189131
 9 0.00014349480621360361
 10 -2.5088470634266231e-07
 11 -1.3782269214311577e-05
 12 0.00027901960264430027
 13 -8.8118121361281754e-05
 14 6.2878180197386758e-06
 15 4.9536092102815675e-08
 16 0.00018490626887650443
 17 -0.0067207966251504039
 18 -0.0017748509731467133
 19 0.00216554794581209
 20 -8.0513298409233658e-07
 21 -0.0041340570290455984
 22 -0.0061566613960557836
 23 0.003494516816360219
 24 -9.2611886848368341e-05
 25 -5.9175519944520401e-07
 26 -7.5194988749028614e-05
 27 -4.4078287780567341e-05
 28 4.3531967898337596e-05
 29 1.2843773019951239e-05
 30 1.1210236636930399e-07
 31 -0.00040825028049890739
 32 -6.2064409842645723e-05
 33 3.9022102186366228e-05
 34 -1.9504572360880962e-05
 35 1.6358219543479433e-07
 36 0.99221157208023159
 37 0.035262254141667261
 38 -0.0011988717697352148
 39 0.00070787630660344052
 40 6.0072790135533193e-06
 41 -0.0040474403641958187
 42 5.7922265858054666e-05
 43 -1.4835094629499701e-05
 44 -7.5833161421013658e-05
 45 2.2553780242583365e-07
 46 -0.0011309509975773618
 47 0.00028532734227869252
 48 -0.00010029544782155512
 49 -3.9468400326131073e-05
 50 3.0811837730110242e-08
 51 0.00236625360893862
 52 -0.0063489591843114215
 53 -0.0023073328113680002
 54 -0.0028918607847810709
 55 6.4283273707288878e-06
 56 -0.005999221047487951
 57 -0.00066901218897681344
 58 -0.00054874440690280159
 59 0.00045562083435291955
 60 1.0087524905258593e-07
 61 -3.3649284826708183e-06
 62 -8.8548976993127838e-06
 63 3.8608390396146742e-06
 64 4.3773207138761468e-06
 65 -1.6343400836238834e-08
 66 -1.2333521866310494e-06
 67 -5.2077140618411361e-06
 68 1.039578346223341e-06
 69 -2.916110729969567e-06
 70 -5.8413933270850403e-09
 71 -0.00010497587101359882
 72 -9.9939175125035682e-05
 73 -6.4404657135979314e-05
 74 -8.3445837792149865e-06
 75 2.332581520286014e-07
 76 -0.00010982393835536247
 77 -0.00014811732519803811
 78 -7.0662750019098418e-05
 79 5.7812919620606013e-05
 80 1.6838184324303153e-07
 81 1.1060246812215638e-06
 82 9.7040048490491401e-07
 83 -8.4109047928370253e-07
 84 2.1748719426637083e-08
 85 -9.189834374185064e-10
 86 2.3222851824584498e-06
 87 1.0595899280198162e-06
 88 -8.5215907923581595e-07
 89 -3.3622442907461373e-08
 90 3.7761211409277805e-10
 91 1.2083121091368352e-05
 92 -6.1715177545750371e-06
 93 -1.5089803803710306e-06
 94 2.871537104997706e-06
 95 5.5154413736073287e-09
 96 -1.695124132983981e-06
 97 1.3185581653554541e-06
 98 3.7344800163210419e-06
 99 -5.9078577559082327e-06
 100 -4.0562425073083728e-09
 101 -0.00015196720387561857
 102 5.4741769277936937e-07
 103 2.921910479018389e-06
 104 -4.5186027094314208e-06
 105 1.2786052484805397e-06
 106 -6.6942995961973744e-08
 107 -1.368446670523588e-07
 108 8.6245478699218612e-07
 109 1.8075449147928463e-06
 110 -9.8927227829313432e-06
Sym= A
Ene= -11.080871992595423
Spin= Alpha
Occup= 2
 1 -0.00033841352542029096
 2 0.0045525907887332597
 3 0.00032487074060113581
 4 -0.0017850441488073236
 5 3.3220723120128201e-06
 6 3.6336512509672704e-07
 7 -1.0185281447694052e-05
 8 3.8484462821400292e-06
 9 -5.0370417701077196e-06
 10 5.7081021065009307e-09
 11 -1.0560793159727e-05
 12 -0.00040557968121938623
 13 -3.4319888066616475e-05
 14 -2.9256089633332931e-05
 15 -1.089382490749483e-07
 16 -1.9994053130176028e-05
 17 7.3111066230207027e-05
 18 0.00010672633993492563
 19 3.4801989822230894e-05
 20 -2.5521995513342998e-08
 21 -0.010339288576722656
 22 0.0069036616941243762
 23 0.002130159514704669
 24 0.0031463349528733581
 25 -3.3233897169387749e-06
 26 -0.0029249837482536391
 27 0.0071843259683657922
 28 -0.0035400130910166034
 29 0.0015763503505848745
 30 -6.9892726017734124e-06
 31 0.018565071025761413
 32 0.00063821550339269301
 33 -0.00033536059724613594
 34 9.6140820495338363e-05
 35 -6.5451584908111414e-07
 36 -0.0041154391025268076
 37 -0.00028767082094571361
 38 -3.2947609671446081e-05
 39 3.142741499671885e-05
 40 -6.3728389983765527e-08
 41 -0.9920526061193834
 42 -0.035175000730115889
 43 -0.0007543574198877913
 44 0.0019682792956741491
 45 -5.9314858195717364e-06
 46 4.3789918426375242e-06
 47 7.6621794973877066e-07
 48 2.2482617630748019e-06
 49 -4.9193371922133734e-06
 50 -1.6783445010305366e-09
 51 -9.458685687964213e-05
 52 8.0969592728734086e-05
 53 5.2097674088700155e-05
 54 1.7291055657988808e-05
 55 -9.1092867580769783e-08
 56 0.00011021873158019469
 57 3.7202156887008553e-05
 58 2.5169281221501631e-05
 59 -8.9761147019017455e-07
 60 -6.9090724104119591e-08
 61 8.6286525912173721e-05
 62 -0.00029425744258502117
 63 8.2841374915061292e-05
 64 -2.3191914468860423e-05
 65 1.5816989388704824e-07
 66 9.2614600115037787e-05
 67 9.497379714899088e-06
 68 5.3131967374727254e-06
 69 3.1490907914347651e-05
 70 -7.3010708852458488e-08
 71 -4.2554566245572626e-07
 72 -1.7687604058574371e-07
 73 -2.163340544057458e-07
 74 3.5710044819875789e-07
 75 -5.018223224535349e-11
 76 -6.0829264988058705e-06
 77 6.9558033181596068e-07
 78 -6.696756749783946e-07
 79 -2.199292999875508e-06
 80 1.09260986916476e-09
 81 6.812885683763655e-05
 82 5.9142324086902508e-05
 83 -3.8771774876326961e-05
 84 -5.2907892455963341e-06
 85 -7.4494327228406021e-08
 86 1.4952237925836553e-05
 87 -2.4932592049197721e-06
 88 -8.846687600398431e-06
 89 2.008753967202211e-06
 90 -2.3293037002921434e-08
 91 3.2108461129028179e-06
 92 3.8144272266668596e-07
 93 2.9307752770798963e-07
 94 7.8229229331017738e-08
 95 1.9438041325613456e-09
 96 3.0372713429606979e-07
 97 -4.0778285679948428e-07
 98 -1.5389105444045162e-07
 99 -1.5924605453376113e-07
 100 7.7882549504224482e-10
 101 5.847866593413299e-05
 102 0.00014298473091814884
 103 5.7774080576709025e-06
 104 2.9898834243521085e-07
 105 3.2123383652479585e-07
 106 3.4970506579835149e-06
 107 4.0120241540866634e-06
 108 -4.1165092282267208e-09
 109 8.6546202721013349e-08
 110 0.00083808543294352849
Sym= A
Ene= -11.077378981374189
Spin= Alpha
Occup= 2
 1 2.001041293817353e-05
 2 -0.00020696089935382824
 3 -2.8460815087765175e-05
 4 9.2396424859507006e-05
 5 -1.7480882946601471e-07
 6 -3.3108279502911437e-07
 7 9.0968675125620085e-07
 8 2.8531976967014184e-06
 9 -1.8268872882753434e-06
 10 5.25128715549012e-09
 11 0.00032643248637016407
 12 -0.0060803998374833476
 13 -0.0028875561250504196
 14 -0.00064924748099817503
 15 -2.5916576408424714e-06
 16 6.9551631450345536e-07
 17 -5.8201157445260616e-06
 18 -1.1102412828574222e-06
 19 2.9588448927466428e-06
 20 -5.0200532898303306e-09
 21 -0.0093881611803205318
 22 -0.00093932015994900261
 23 -0.00071389052718039212
 24 -8.8529956569477808e-06
 25 -9.2044813108153477e-07
 26 0.0039602244069680027
 27 -0.00756934042036813
 28 0.00019188022086466733
 29 0.0038417624380837215
 30 -6.4591956337309628e-06
 31 0.99187385905857073
 32 0.036742072266012463
 33 -0.00040259674660874615
 34 0.00085138398905816311
 35 -7.8057093786426934e-07
 36 0.00044966053949591989
 37 -6.7913010656769695e-05
 38 -6.39374929470396e-05
 39 -5.5286849014956611e-06
 40 1.3882754896712555e-07
 41 0.018784342019859561
 42 0.00093514722648388156
 43 -3.1900162724588039e-05
 44 0.00017770710405097
 45 -2.3521203944311977e-07
 46 -3.8888470572693352e-06
 47 1.1127032042053173e-06
 48 2.5957538412752683e-07
 49 -2.5367545353141778e-07
 50 -3.4157940176078892e-09
 51 4.5077537560441311e-06
 52 -7.2845046980464998e-06
 53 -4.385332106768429e-07
 54 -7.9674308978756236e-06
 55 1.1031008288789252e-08
 56 -1.2012536973666417e-05
 57 -1.2064861998492979e-06
 58 -9.2062421308344744e-07
 59 1.2312154460888092e-06
 60 -9.4549216204046444e-11
 61 -0.00040409842322898878
 62 0.0002894865347536817
 63 -6.2590967088187223e-05
 64 -1.6691786355404569e-05
 65 -6.5932693510276454e-08
 66 0.0026911527162385715
 67 -0.0067670475242515554
 68 0.0030251956839313114
 69 -0.0020455722952224297
 70 8.3075162693478986e-06
 71 -3.6044382340791001e-07
 72 -1.6391350901781545e-07
 73 -1.092897084549254e-07
 74 3.5304332086299836e-08
 75 4.2571832176130841e-10
 76 -2.2193157259652888e-06
 77 -5.648703572560025e-07
 78 -2.6155360507636781e-07
 79 1.5878376396524597e-07
 80 -8.9644814453724265e-10
 81 -0.00064945378177844334