[Molden Format]
[Title]
generated by GANSU
[Atoms] (Angs)
C 1 6 -1.282 0.74 0.255
C 2 6 0 -1.48 0.255
C 3 6 1.282 0.74 0.255
C 4 6 0 1.48 -0.255
C 5 6 -1.282 -0.74 -0.255
C 6 6 1.282 -0.74 -0.255
O 7 8 -2.486 1.435 -0.086
O 8 8 0 -2.87 -0.086
O 9 8 2.486 1.435 -0.086
O 10 8 0 2.87 0.086
O 11 8 -2.486 -1.435 0.086
O 12 8 2.486 -1.435 0.086
H 13 1 -1.258 0.726 1.351
H 14 1 0 -1.452 1.351
H 15 1 1.258 0.726 1.351
H 16 1 0 1.452 -1.351
H 17 1 -1.258 -0.726 -1.351
H 18 1 1.258 -0.726 -1.351
H 19 1 -2.497 1.442 -1.077
H 20 1 0 -2.883 -1.077
H 21 1 2.497 1.442 -1.077
H 22 1 0 2.883 1.077
H 23 1 -2.497 -1.442 1.077
H 24 1 2.497 -1.442 1.077
[GTO]
1 0
 s 3 1.00
    13.0451 0.535328
    3.53051 0.444635
    71.6168 0.154329
 s 3 1.00
    2.94125 -0.0999672
    0.683483 0.399513
    0.22229 0.700115
 p 3 1.00
    0.22229 0.391957
    0.683483 0.607684
    2.94125 0.155916

2 0
 s 3 1.00
    71.6168 0.154329
    13.0451 0.535328
    3.53051 0.444635
 s 3 1.00
    2.94125 -0.0999672
    0.683483 0.399513
    0.22229 0.700115
 p 3 1.00
    0.683483 0.607684
    0.22229 0.391957
    2.94125 0.155916

3 0
 s 3 1.00
    71.6168 0.154329
    3.53051 0.444635
    13.0451 0.535328
 s 3 1.00
    2.94125 -0.0999672
    0.683483 0.399513
    0.22229 0.700115
 p 3 1.00
    2.94125 0.155916
    0.683483 0.607684
    0.22229 0.391957

4 0
 s 3 1.00
    3.53051 0.444635
    13.0451 0.535328
    71.6168 0.154329
 s 3 1.00
    0.22229 0.700115
    0.683483 0.399513
    2.94125 -0.0999672
 p 3 1.00
    2.94125 0.155916
    0.683483 0.607684
    0.22229 0.391957

5 0
 s 3 1.00
    71.6168 0.154329
    13.0451 0.535328
    3.53051 0.444635
 s 3 1.00
    0.683483 0.399513
    2.94125 -0.0999672
    0.22229 0.700115
 p 3 1.00
    2.94125 0.155916
    0.683483 0.607684
    0.22229 0.391957

6 0
 s 3 1.00
    3.53051 0.444635
    71.6168 0.154329
    13.0451 0.535328
 s 3 1.00
    0.683483 0.399513
    2.94125 -0.0999672
    0.22229 0.700115
 p 3 1.00
    0.683483 0.607684
    2.94125 0.155916
    0.22229 0.391957

7 0
 s 3 1.00
    6.44361 0.444635
    23.8089 0.535328
    130.709 0.154329
 s 3 1.00
    5.03315 -0.0999672
    1.1696 0.399513
    0.380389 0.700115
 p 3 1.00
    5.03315 0.155916
    1.1696 0.607684
    0.380389 0.391957

8 0
 s 3 1.00
    130.709 0.154329
    23.8089 0.535328
    6.44361 0.444635
 s 3 1.00
    5.03315 -0.0999672
    1.1696 0.399513
    0.380389 0.700115
 p 3 1.00
    5.03315 0.155916
    1.1696 0.607684
    0.380389 0.391957

9 0
 s 3 1.00
    23.8089 0.535328
    6.44361 0.444635
    130.709 0.154329
 s 3 1.00
    0.380389 0.700115
    1.1696 0.399513
    5.03315 -0.0999672
 p 3 1.00
    1.1696 0.607684
    5.03315 0.155916
    0.380389 0.391957

10 0
 s 3 1.00
    6.44361 0.444635
    23.8089 0.535328
    130.709 0.154329
 s 3 1.00
    0.380389 0.700115
    1.1696 0.399513
    5.03315 -0.0999672
 p 3 1.00
    5.03315 0.155916
    1.1696 0.607684
    0.380389 0.391957

11 0
 s 3 1.00
    130.709 0.154329
    23.8089 0.535328
    6.44361 0.444635
 s 3 1.00
    5.03315 -0.0999672
    1.1696 0.399513
    0.380389 0.700115
 p 3 1.00
    5.03315 0.155916
    1.1696 0.607684
    0.380389 0.391957

12 0
 s 3 1.00
    130.709 0.154329
    23.8089 0.535328
    6.44361 0.444635
 s 3 1.00
    5.03315 -0.0999672
    0.380389 0.700115
    1.1696 0.399513
 p 3 1.00
    0.380389 0.391957
    5.03315 0.155916
    1.1696 0.607684

13 0
 s 3 1.00
    0.623914 0.535328
    3.42525 0.154329
    0.168855 0.444635

14 0
 s 3 1.00
    0.623914 0.535328
    0.168855 0.444635
    3.42525 0.154329

15 0
 s 3 1.00
    3.42525 0.154329
    0.623914 0.535328
    0.168855 0.444635

16 0
 s 3 1.00
    3.42525 0.154329
    0.623914 0.535328
    0.168855 0.444635

17 0
 s 3 1.00
    3.42525 0.154329
    0.623914 0.535328
    0.168855 0.444635

18 0
 s 3 1.00
    3.42525 0.154329
    0.168855 0.444635
    0.623914 0.535328

19 0
 s 3 1.00
    0.168855 0.444635
    0.623914 0.535328
    3.42525 0.154329

20 0
 s 3 1.00
    0.168855 0.444635
    0.623914 0.535328
    3.42525 0.154329

21 0
 s 3 1.00
    3.42525 0.154329
    0.623914 0.535328
    0.168855 0.444635

22 0
 s 3 1.00
    3.42525 0.154329
    0.623914 0.535328
    0.168855 0.444635

23 0
 s 3 1.00
    0.168855 0.444635
    3.42525 0.154329
    0.623914 0.535328

24 0
 s 3 1.00
    0.168855 0.444635
    0.623914 0.535328
    3.42525 0.154329

[MO]
Sym= A
Ene= -20.2788
Spin= Alpha
Occup= 2
 1 -9.1143949602932872e-05
 2 0.00072619574152238495
 3 -0.0006964145848749239
 4 0.00012434944132955206
 5 -0.00016582684704537914
 6 0.00033118998340357555
 7 -0.0026777605280797201
 8 1.5600296406892598e-13
 9 0.0022257946307329829
 10 0.00049741936670779502
 11 -9.1143949303257223e-05
 12 0.00072619573910161868
 13 0.00069641458317682564
 14 0.00012434944016943145
 15 -0.00016582684657749126
 16 -0.00033118998176016705
 17 0.0026777605150241079
 18 1.6971780172961583e-13
 19 0.0022257946202021428
 20 0.00049741936442078416
 21 9.1143949653006316e-05
 22 -0.00072619574148844596
 23 0.00069641458522639969
 24 0.0001243494406149466
 25 -0.00016582684716173572
 26 9.1143949926105567e-05
 27 -0.00072619574367958038
 28 -0.00069641458675828889
 29 0.0001243494416948987
 30 -0.00016582684759268787
 31 -0.19330723409432879
 32 -0.0050062889209818266
 33 -0.00039380873905793187
 34 0.00021459907521963802
 35 0.00037468700178112414
 36 0.64768199620080513
 37 0.016754465444217798
 38 6.951760783291948e-15
 39 0.0014939588850584606
 40 -0.0012379543264121398
 41 -0.19330723349846024
 42 -0.0050062889055646799
 43 0.00039380873786981282
 44 0.00021459907452643125
 45 0.00037468700063915741
 46 -0.64768199304849983
 47 -0.016754465362789517
 48 7.5495179356215301e-15
 49 0.0014939588778480062
 50 -0.0012379543203780152
 51 0.19330723424432461
 52 0.0050062889247619521
 53 0.00039380873931418175
 54 0.00021459907533048512
 55 0.00037468700214833908
 56 0.19330723478824868
 57 0.0050062889388353404
 58 -0.00039380874039849495
 59 0.00021459907596393501
 60 0.00037468700319220893
 61 -0.0001405247237553026
 62 0.00028768903098400772
 63 -0.00014052472345985143
 64 -0.00028768902976164176
 65 0.00014052472416067625
 66 0.0001405247244451787
 67 0.0011155578720521142
 68 -0.0037300419906594467
 69 0.0011155578686193462
 70 0.0037300419725115885
 71 -0.0011155578729658625
 72 -0.0011155578761003274
Sym= A
Ene= -20.278827141434064
Spin= Alpha
Occup= 2
 1 -3.5307828278252455e-05
 2 0.00019682591120631122
 3 -0.00022994732965147418
 4 -5.0398572442000161e-05
 5 -6.9410449325540968e-05
 6 -0.00036287339723701725
 7 0.0029004758555934013
 8 -2.6106505133801976e-13
 9 -0.0023365468432950537
 10 -0.000501007643407686
 11 -3.5307829014827319e-05
 12 0.00019682591716169671
 13 0.00022994733384902491
 14 -5.039856971788062e-05
 15 -6.9410450442290023e-05
 16 -0.00036287339854603352
 17 0.0029004758661294802
 18 -4.0588935781221564e-13
 19 0.0023365468523324634
 20 0.0005010076455066112
 21 -3.5307827634462746e-05
 22 0.00019682590603490278
 23 -0.00022994732530949363
 24 5.0398573650113632e-05
 25 6.9410448319925239e-05
 26 -3.5307828070685852e-05
 27 0.00019682590951908448
 28 0.00022994732772244736
 29 5.0398571788599217e-05
 30 6.9410449042239808e-05
 31 -0.08317959381807162
 32 -0.0021341562749628076
 33 -0.00015832971912596583
 34 8.4166485458326418e-05
 35 0.00017626302667231135
 36 -0.69310579476356127
 37 -0.017906762971734241
 38 -1.213307874809392e-14
 39 -0.0015875420090719072
 40 0.0013233085541918821
 41 -0.083179595263390763
 42 -0.0021341563123541702
 43 0.00015832972201047617
 44 8.4166487134973086e-05
 45 0.00017626302943382285
 46 -0.69310579739190614
 47 -0.017906763039752915
 48 -1.7923669168050019e-14
 49 0.001587542015147117
 50 -0.0013233085592390462
 51 -0.083179592539111308
 52 -0.0021341562418757173
 53 -0.00015832971654541894
 54 -8.4166484029347954e-05
 55 -0.00017626302421659343
 56 -0.08317959342669641
 57 -0.0021341562648457286
 58 0.00015832971831199194
 59 -8.4166485068115984e-05
 60 -0.0001762630259288505
 61 -0.00011898649889286947
 62 -0.00025107774086849041
 63 -0.00011898649954701634
 64 -0.00025107774228510203
 65 -0.0001189864982384034
 66 -0.00011898649877160015
 67 0.00048988438085603367
 68 0.0039879998659430038
 69 0.00048988438917642405
 70 0.0039879998810900263
 71 0.00048988437348247184
 72 0.0004898843786042429
Sym= A
Ene= -20.278824310149854
Spin= Alpha
Occup= 2
 1 0.00024964281535190666
 2 -0.0020114306915362274
 3 0.0014085930474608752
 4 -0.00097709633314967126
 5 0.00039183788101522857
 6 6.4776623183227398e-13
 7 -5.1553089565615645e-12
 8 -0.00028426242233816311
 9 4.1357918319505026e-12
 10 9.0055032632180717e-13
 11 -0.00024964281490155488
 12 0.0020114306881192732
 13 0.0014085930452223255
 14 0.00097709633183473005
 15 -0.00039183788042986001
 16 1.3021532101999257e-13
 17 -9.4819791054353564e-13
 18 -0.00028426242151364904
 19 -8.0113823921853694e-13
 20 -2.0134663922982108e-13
 21 0.00024964281609194305
 22 -0.002011430697630788
 23 0.0014085930521734735
 24 0.00097709633512656907
 25 -0.0003918378820759634
 26 -0.00024964281586377097
 27 0.0020114306960735025
 28 0.0014085930506569921
 29 -0.00097709633476331798
 30 0.00039183788161157099
 31 0.49710505220907808
 32 0.012861987850099829
 33 0.00099112770156944974
 34 -0.00057862061671683229
 35 -0.00095340282582092109
 36 1.2391476174827316e-09
 37 3.2012228202726505e-11
 38 -1.2745349894829894e-05
 39 2.8348393742498677e-12
 40 -2.3717985707647343e-12
 41 -0.49710505135592553
 42 -0.012861987828115956
 43 0.00099112769991053368
 44 0.00057862061575841839
 45 0.00095340282416314995
 46 2.6801950194129887e-10
 47 6.9070068491891831e-12
 48 -1.2745349862690672e-05
 49 -6.0213174805428478e-13
 50 5.2926929191656025e-13
 51 0.49710505363323149
 52 0.012861987886945703
 53 0.00099112770443871012
 54 0.00057862061834042244
 55 0.0009534028285136005
 56 -0.49710505310279196
 57 -0.012861987873265229
 58 0.00099112770339754297
 59 -0.00057862061776166318
 60 -0.00095340282743575783
 61 0.00025304936465070371
 62 4.7563561349781254e-13
 63 -0.00025304936428776487
 64 1.9060840659617773e-13
 65 0.00025304936512025346
 66 -0.000253049364504725
 67 -0.0028642862374963426
 68 -7.1371660258686193e-12
 69 0.0028642862325641005
 70 -1.5501191090609733e-12
 71 -0.0028642862456689441
 72 0.0028642862425792767
Sym= A
Ene= -20.278815788493795
Spin= Alpha
Occup= 2
 1 0.00025377946876593317
 2 -0.0019990133490723379
 3 0.0013205632735002679
 4 -0.00094452691788646931
 5 0.00035715761633962201
 6 -7.257116408570987e-05
 7 0.00069341119440406631
 8 1.3059555122151325e-12
 9 -0.00053873581445206681
 10 -7.2454472164747846e-05
 11 0.00025377946662031355
 12 -0.0019990133313183764
 13 -0.0013205632606330397
 14 -0.00094452691196592747
 15 0.00035715761357792142
 16 -7.2571163299780389e-05
 17 0.00069341118792520719
 18 -1.0176736983143075e-12
 19 0.00053873580973495816
 20 7.2454471298430412e-05
 21 0.00025377946718610229
 22 -0.0019990133360113516
 23 0.0013205632634859729
 24 0.0009445269134259332
 25 -0.00035715761409574331
 26 0.00025377946983866709
 27 -0.0019990133578415663
 28 -0.0013205632792076608
 29 0.00094452692132698801
 30 -0.00035715761765223869
 31 0.49009974202324502
 32 0.012656174617008922
 33 0.0009657513059582179
 34 -0.00056372314957888955
 35 -0.00094180395800724792
 36 -0.11763521136344048
 37 -0.0030587949131263281
 38 5.1697986697641189e-14
 39 -0.00028443334903254566
 40 0.00020136262043594227
 41 0.49009973805954099
 42 0.012656174514524443
 43 -0.00096575129800823001
 44 -0.00056372314505559462
 45 -0.00094180395056971122
 46 -0.11763520998757379
 47 -0.0030587948776007595
 48 -3.868428024211944e-14
 49 0.00028443334588815292
 50 -0.00020136261786194961
 51 0.49009973899472187
 52 0.012656174538644413
 53 0.00096575129985333741
 54 0.00056372314611079222
 55 0.00094180395229874481
 56 0.49009974396585376
 57 0.012656174667195236
 58 -0.00096575130981175344
 59 0.00056372315180663532
 60 0.0009418039616685206
 61 0.00020743667276823703
 62 7.5902906248679486e-05
 63 0.0002074366720576943
 64 7.5902906262763706e-05
 65 0.00020743667184779796
 66 0.00020743667307062189
 67 -0.0028238302250694902
 68 0.00066185998170435051
 69 -0.0028238302023489842
 70 0.00066185997380515532
 71 -0.0028238302077093005
 72 -0.0028238302362346146
Sym= A
Ene= -20.278813460874556
Spin= Alpha
Occup= 2
 1 -0.00026692755281731067
 2 0.0022023970426870224
 3 -0.0015906136366417301
 4 0.00076898054602837079
 5 -0.0003515236796724306
 6 -3.5207790037990032e-13
 7 3.2985928679878224e-12
 8 -0.00025852454343666328
 9 -2.6523721825648983e-12
 10 -3.9977792141955534e-13
 11 0.00026692755534732295
 12 -0.0022023970627488253
 13 -0.0015906136498439472
 14 -0.00076898055531209736
 15 0.00035152368316071492
 16 -5.033732991397164e-13
 17 4.5596761923878272e-12
 18 0.00025852454434329222
 19 3.4997604677324096e-12
 20 5.322122878374056e-13
 21 0.00026692755428181568
 22 -0.0022023970541258063
 23 0.0015906136438874618
 24 0.00076898055142804109
 25 -0.00035152368159320317
 26 -0.00026692755229044257
 27 0.0022023970384791973
 28 0.0015906136336123478
 29 -0.00076898054367909724
 30 0.00035152367873993694
 31 -0.497108969906769
 32 -0.012854140483206891
 33 -0.00099639389314172544
 34 0.00056856520752866443
 35 0.00093512018528486493
 36 -5.9918900702009292e-10
 37 -1.5574611607249634e-11
 38 -1.0047953078884918e-05
 39 -1.4422950691400373e-12
 40 1.0474252542162662e-12
 41 0.49710897474611321
 42 0.012854140608186307
 43 -0.00099639390268854017
 44 -0.00056856521309528105
 45 -0.00093512019455506065
 46 -8.4679039555365301e-10
 47 -2.1959159903198724e-11
 48 1.004795311935992e-05
 49 2.0045315379208429e-12
 50 -1.5044303050257907e-12
 51 0.49710897267903648
 52 0.012854140554724558
 53 0.00099639389857082705
 54 0.00056856521070215715
 55 0.00093512019060948762
 56 -0.49710896880285044
 57 -0.012854140454622104
 58 0.00099639389093698905
 59 -0.00056856520623102536
 60 -0.00093512018314955911
 61 -0.00010761075594545744
 62 2.3618705301915586e-13
 63 0.00010761075779300387
 64 3.0531102046816846e-13
 65 0.00010761075693593056
 66 -0.00010761075518825303
 67 0.0028511769674396531
 68 3.3834279882671219e-12
 69 -0.0028511769953084437
 70 4.8014791663665776e-12
 71 -0.0028511769834065059
 72 0.0028511769610710391
Sym= A
Ene= -20.278806491718967
Spin= Alpha
Occup= 2
 1 0.00025690108720793914
 2 -0.0021073788578906405
 3 0.0013862960547656802
 4 -0.00073925808471465848
 5 0.00029978221128219504
 6 0.00016424960349661205
 7 -0.0013609146477469372
 8 2.5185398332340541e-13
 9 0.00093626036238091126
 10 0.00015426418433654536
 11 0.00025690108714160852
 12 -0.0021073788573055044
 13 -0.001386296054306034
 14 -0.00073925808474011728
 15 0.00029978221124793078
 16 -0.0001642496042659463
 17 0.0013609146542811271
 18 -1.4195539880219411e-14
 19 0.0009362603675763595
 20 0.0001542641853026301
 21 -0.00025690108659782995
 22 0.0021073788530025749
 23 -0.0013862960517464218
 24 -0.00073925808222180533
 25 0.00029978221048527001
 26 -0.00025690108611265035
 27 0.0021073788490533797
 28 0.0013862960489313819
 29 -0.00073925808061338361
 30 0.00029978220979528895
 31 0.4579854906055994
 32 0.011828412598630378
 33 0.00090906283001696009
 34 -0.00052127821126326038
 35 -0.00086037894058155553
 36 0.27338547154632409
 37 0.0070526457207169477
 38 1.0464639342667386e-14
 39 0.00062207532167850993
 40 -0.00050621361582652014
 41 0.45798549050952514
 42 0.011828412596152929
 43 -0.00090906282981990244
 44 -0.00052127821116177558
 45 -0.00086037894041608026
 46 -0.27338547294296223
 47 -0.0070526457568670931
 48 1.4253527068230099e-16
 49 0.0006220753249289411
 50 -0.00050621361841337448
 51 -0.45798548946057011
 52 -0.011828412569061794
 53 -0.0009090628277623608
 54 -0.00052127820993551691
 55 -0.00086037893840301694
 56 -0.45798548853313309
 57 -0.011828412545074343
 58 0.00090906282590807325
 59 -0.00052127820886634785
 60 -0.00086037893664318507
 61 4.1346649480683909e-05
 62 -5.266707774933925e-05
 63 4.1346649581636141e-05
 64 5.2667077649708877e-05
 65 -4.1346649151443801e-05
 66 -4.1346648829398459e-05
 67 -0.002630976880124869
 68 -0.0015673020491510301
 69 -0.0026309768795846691
 70 0.0015673020571350046
 71 0.002630976873542204
 72 0.0026309768682122731
Sym= A
Ene= -11.115964907518677
Spin= Alpha
Occup= 2
 1 -0.39150840998852937
 2 -0.018365545284621573
 3 -0.0011847293207925373
 4 0.00055711678887819527
 5 0.00073699504754349415
 6 -0.4297653758982482
 7 -0.019508239615585482
 8 -2.3515989259730213e-13
 9 -0.0012632243185409578
 10 0.0006666891582165109
 11 -0.39150841011350984
 12 -0.018365545289476946
 13 0.0011847293208286577
 14 0.00055711678917117619
 15 0.00073699504754463213
 16 0.42976537613361121
 17 0.019508239625060052
 18 3.7238184493908074e-13
 19 -0.001263224318962107
 20 0.00066668915828791211
 21 0.39150840990920899
 22 0.018365545280954146
 23 0.0011847293200767002
 24 0.00055711678955804554
 25 0.00073699504742240005
 26 0.39150840998681602
 27 0.01836554528439302
 28 -0.0011847293200878892
 29 0.00055711678999451932
 30 0.00073699504751044073
 31 -0.00018491316826268166
 32 0.0019680688565753765
 33 0.00077800873025523146
 34 -0.00045057091778203349
 35 0.00030471929464613101
 36 -0.00020045964906636321
 37 0.0021237273086918418
 38 7.3191358688344864e-16
 39 0.00097135205857351581
 40 0.00033516553909784677
 41 -0.00018491316831685881
 42 0.0019680688571356818
 43 -0.0007780087304772032
 44 -0.00045057091791093386
 45 0.00030471929474374868
 46 0.00020045964916915252
 47 -0.0021237273097661526
 48 8.9286429353400544e-16
 49 0.00097135205906318314
 50 0.00033516553928146682
 51 0.00018491316822818668
 52 -0.0019680688561940704
 53 -0.00077800873010586483
 54 -0.00045057091769707194
 55 0.0003047192945855857
 56 0.00018491316826224104
 57 -0.0019680688565624563
 58 0.00077800873025072118
 59 -0.00045057091777969335
 60 0.00030471929464573463
 61 0.0027568047450288978
 62 0.0030285398708765031
 63 0.0027568047459153137
 64 -0.0030285398725441205
 65 -0.0027568047444657372
 66 -0.0027568047450162274
 67 0.00036670549687058476
 68 0.00041421492190570584
 69 0.00036670549699777122
 70 -0.00041421492213721683
 71 -0.00036670549680570784
 72 -0.00036670549687423462
Sym= A
Ene= -11.115899135895628
Spin= Alpha
Occup= 2
 1 -0.2748478526748997
 2 -0.011435353470778689
 3 -0.0018130731897363778
 4 -0.0019270432985141611
 5 0.00015751019039856456
 6 0.58358463607257505
 7 0.023705981070282794
 8 -1.2640811271898381e-12
 9 0.0011099644449886576
 10 -0.00021883141235484738
 11 -0.27484785310455573
 12 -0.011435353488321505
 13 0.0018130731898376162
 14 -0.0019270432969943976
 15 0.00015751019057741802
 16 0.58358463596778953
 17 0.023705981064489241
 18 1.2887260536244882e-12
 19 -0.0011099644444131961
 20 0.00021883141196542971
 21 -0.27484785329029993
 22 -0.011435353496537876
 23 -0.0018130731901321862
 24 0.0019270432965236978
 25 -0.00015751019081874582
 26 -0.27484785286916963
 27 -0.011435353479249833
 28 0.0018130731900363045
 29 0.0019270432980687535
 30 -0.00015751019062365534
 31 -0.00011956994748750044
 32 0.0012664048408646536
 33 0.00049890877795847818
 34 -0.0002874999277951637
 35 0.00021270047107068888
 36 0.00025360879529839187
 37 -0.0026700555475420856
 38 1.9765240326603081e-16
 39 -0.0012169301221011744
 40 -0.00045414138562942697
 41 -0.0001195699476737947
 42 0.0012664048428317927
 43 -0.00049890877873467673
 44 -0.0002874999282438534
 45 0.00021270047140435359
 46 0.00025360879524585306
 47 -0.002670055546965729
 48 -1.7699199283551889e-16
 49 0.0012169301218399077
 50 0.0004541413855483436
 51 -0.00011956994776021629
 52 0.0012664048437375057
 53 0.00049890877909577677
 54 0.00028749992844843628
 55 -0.00021270047154944881
 56 -0.00011956994757672857
 57 0.0012664048418041859
 58 -0.00049890877833293906
 59 0.00028749992800853469
 60 -0.00021270047122250052
 61 0.0019502172638185961
 62 -0.0041379493110407783
 63 0.0019502172668657176
 64 -0.0041379493103063797
 65 0.0019502172681750037
 66 0.0019502172651889443
 67 0.00025884552022075163
 68 -0.0005683108033431878
 69 0.00025884552063591085
 70 -0.00056831080326025414
 71 0.00025884552081852086
 72 0.00025884552041428258
Sym= A
Ene= -11.115871771766894
Spin= Alpha
Occup= 2
 1 -0.49580866771219778
 2 -0.020298602771253126
 3 -0.00011470366155984409
 4 0.0017856350561825662
 5 0.0002179217843581889
 6 1.8538968527625298e-10
 7 7.529870057443727e-12
 8 0.0029755926513605341
 9 3.6091798630948686e-13
 10 -6.1485176782210324e-14
 11 0.49580866743654489
 12 0.020298602758862468
 13 -0.00011470365959677029
 14 -0.0017856350578977706
 15 -0.0002179217839945978
 16 3.258902613075574e-10
 17 1.3062358141433628e-11
 18 -0.0029755926515008246
 19 -5.5771946618036915e-13
 20 9.4944067200059951e-14
 21 0.49580866746338892
 22 0.020298602760997979
 23 0.00011470365996399563
 24 0.0017856350578910954
 25 0.00021792178423633846
 26 -0.49580866763690623
 27 -0.020298602767669635
 28 0.00011470366116668289
 29 -0.0017856350563358256
 30 -0.00021792178420495384
 31 -0.00021553943054577511
 32 0.0022730746890976834
 33 0.00089664431038899515
 34 -0.00051788891565254791
 35 0.00038515688845467392
 36 8.0205829891346388e-14
 37 -8.4418962493600139e-13
 38 -4.4650852423430698e-07
 39 -3.8358199418148173e-13
 40 -1.4413601136361684e-13
 41 0.00021553943042249541
 42 -0.0022730746877729479
 43 0.00089664430987020181
 44 0.00051788891534984907
 45 -0.00038515688824211869
 46 1.4160871893467141e-13
 47 -1.488874647151136e-12
 48 4.4650852258631968e-07
 49 6.8047455390166113e-13
 50 2.5434940453324145e-13
 51 0.00021553943043835485
 52 -0.0022730746879586622
 53 -0.00089664430994078857
 54 -0.00051788891539315471
 55 0.00038515688826230512
 56 -0.00021553943051047015
 57 0.0022730746887159314
 58 -0.00089664431024012031
 59 0.00051788891556186004
 60 -0.00038515688839607242
 61 0.0035162528426257375
 62 -1.3159420769095167e-12
 63 -0.0035162528406728483
 64 -2.3082938912508075e-12
 65 -0.0035162528408588176
 66 0.0035162528420952729
 67 0.00047788469839389093
 68 -1.7621022952767349e-13
 69 -0.0004778846981486097
 70 -3.273766006361421e-13
 71 -0.00047788469815791563
 72 0.00047788469832395642
Sym= A
Ene= -11.115541177139123
Spin= Alpha
Occup= 2
 1 -0.30427893235849424
 2 -0.0093970320292993681
 3 0.0014544859470542806
 4 0.002038904313036119
 5 -0.00049335632855910258
 6 0.55453292298381884
 7 0.016286848988430844
 8 -1.3836472404232774e-12
 9 -0.00065356454497401267
 10 0.0010825606728871074
 11 -0.30427893178587523
 12 -0.0093970320116555719
 13 -0.0014544859473538188
 14 0.0020389043144598967
 15 -0.00049335632761556003
 16 -0.55453292294894685
 17 -0.016286848986459504
 18 -1.6665641161314013e-12
 19 -0.00065356454521038609
 20 0.0010825606730118001
 21 0.30427893176554993
 22 0.0093970320113684128
 23 -0.0014544859474691849
 24 0.0020389043149110844
 25 -0.00049335632751455012
 26 0.30427893224393199
 27 0.0093970320251526365
 28 0.001454485947191185
 29 0.002038904313147849
 30 -0.00049335632849970999
 31 -0.00012490815047522784
 32 0.0012487075146490603
 33 0.00051830796454123223
 34 -0.00026536561841209935
 35 0.00024089918267796925
 36 0.00022443258625135822
 37 -0.0022283912811233899
 38 -1.7652326811161792e-14
 39 -0.0010397347640491335
 40 -0.00043968138771705197
 41 -0.00012490815024083991
 42 0.0012487075123058826
 43 -0.00051830796360579257
 44 -0.00026536561785097529
 45 0.00024089918222532439
 46 -0.00022443258623563149
 47 0.0022283912809449163
 48 -1.7759199226851952e-14
 49 -0.0010397347639709391
 50 -0.00043968138769241542
 51 0.00012490815023176829
 52 -0.0012487075122314959
 53 -0.00051830796357426137
 54 -0.00026536561783270171
 55 0.0002408991822075001
 56 0.00012490815042485125
 57 -0.001248707514142227
 58 0.00051830796433890492
 59 -0.00026536561829497776
 60 0.0002408991825871348
 61 0.0021604949047043451
 62 -0.0039404007223119292
 63 0.0021604949006370049
 64 0.0039404007220616225
 65 -0.0021604949004953924
 66 -0.0021604949038941043
 67 0.00037250771321273302
 68 -0.00069375473415523355
 69 0.00037250771251541841
 70 0.00069375473413938599
 71 -0.00037250771247880708
 72 -0.00037250771308561768
Sym= A
Ene= -11.115515655001804
Spin= Alpha
Occup= 2
 1 -0.49632696062397147
 2 -0.014841907379913546
 3 -0.00027258900953103585
 4 -0.0015050228769619353
 5 -0.00091091586200903836
 6 -2.8808524398676222e-10
 7 -8.6685291155719738e-12
 8 -0.0028807172634314412
 9 2.7841436046599187e-13
 10 -5.1870943316156733e-13
 11 0.49632696095317019
 12 0.014841907389588439
 13 -0.00027258900785123198
 14 0.0015050228748579239
 15 0.00091091586264640352
 16 3.1955185980909479e-10
 17 9.5069792345913837e-12
 18 -0.002880717263286238
 19 3.5361401212953702e-13
 20 -5.9569911763268889e-13
 21 -0.49632696095164902
 22 -0.014841907389977711
 23 -0.00027258900794035687
 24 0.0015050228747426966
 25 0.00091091586255620744
 26 0.49632696067388776
 27 0.01484190738150646
 28 -0.00027258900945314676
 29 -0.0015050228769029617
 30 -0.00091091586207833102
 31 -0.00020196064707633712
 32 0.002009297572827716
 33 0.00080296896201174396
 34 -0.00048331791340212307
 35 0.00039310734800394181
 36 -1.173039816662937e-13
 37 1.1660141765406035e-12
 38 -3.4021486865348782e-05
 39 5.4288017780628606e-13
 40 2.278052307208951e-13
 41 0.00020196064720982127
 42 -0.0020092975741575463
 43 0.00080296896256590831
 44 0.00048331791368602401
 45 -0.00039310734826607241
 46 1.3029691775131138e-13
 47 -1.295264455588465e-12
 48 -3.4021486865223882e-05
 49 6.0429927372374205e-13
 50 2.5385388027555922e-13
 51 -0.0002019606472102968
 52 0.002009297574166926
 53 0.00080296896256708446
 54 0.00048331791368681678
 55 -0.00039310734826352757
 56 0.00020196064709766251
 57 -0.0020092975730407556
 58 0.00080296896209801696
 59 -0.00048331791345206836
 60 0.00039310734804440077
 61 0.0035258630397747501
 62 2.0475259379241554e-12
 63 -0.003525863042111492
 64 -2.2691433509340877e-12
 65 0.0035258630421025755
 66 -0.003525863040127461
 67 0.00061581901840293551
 68 3.5496346157216459e-13
 69 -0.00061581901881884588
 70 -3.9949193341526688e-13
 71 0.00061581901880309979
 72 -0.0006158190184651054
Sym= A
Ene= -11.115230626717828
Spin= Alpha
Occup= 2
 1 0.4133234373192945
 2 0.010309665197317422
 3 -0.0010019230826719405
 4 0.00066080188255508883
 5 0.0011512583808321701
 6 0.38940079855474596
 7 0.0093307236124771653
 8 5.7334350053005602e-14
 9 -0.0012466375577903852
 10 0.0011616810782776044
 11 0.4133234372721083
 12 0.010309665195757357
 13 0.0010019230826932533
 14 0.00066080188250094291
 15 0.0011512583807764126
 16 0.38940079850168602
 17 0.0093307236108284147
 18 1.3841173677841114e-13
 19 0.0012466375577514684
 20 -0.0011616810781934946
 21 0.4133234373266983
 22 0.010309665197328712
 23 -0.0010019230828151038
 24 -0.0006608018824365864
 25 -0.0011512583808901376
 26 0.4133234373064491
 27 0.010309665196871404
 28 0.001001923082829953
 29 -0.00066080188228568801
 30 -0.0011512583808224071
 31 0.00017740118935833001
 32 -0.0016676489925220375
 33 -0.00069006908688403791
 34 0.00039856851490666003
 35 -0.0003452199227354201
 36 0.0001669882063395807
 37 -0.001558548911464213
 38 1.1522175705447211e-15
 39 -0.00074697209351256774
 40 -0.00032679039518474645
 41 0.00017740118933846916
 42 -0.0016676489923237621
 43 0.00069006908680480962
 44 0.00039856851485962561
 45 -0.00034521992269830395
 46 0.00016698820631760695
 47 -0.0015585489112455511
 48 1.0937074501240261e-15
 49 0.00074697209341102744
 50 0.00032679039514282165
 51 0.00017740118936089393
 52 -0.0016676489925416468
 53 -0.0006900690868937593
 54 -0.00039856851490936446
 55 0.00034521992274154714
 56 0.00017740118935256899
 57 -0.0016676489924665888
 58 0.0006900690868633045
 59 -0.00039856851489060777
 60 0.0003452199227252338
 61 -0.0029020800511743994
 62 -0.0027324316552604228
 63 -0.002902080050839681
 64 -0.0027324316548830718
 65 -0.0029020800512278011
 66 -0.0029020800510842666
 67 -0.00060764056667784831
 68 -0.00058484783881353891
 69 -0.00060764056662293564
 70 -0.00058484783874885975
 71 -0.00060764056669213896
 72 -0.00060764056666299388
Sym= A
Ene= -1.3272810249207239
Spin= Alpha
Occup= 2
 1 0.050078630644315801
 2 -0.12548400792926637
 3 0.017477509569023629
 4 -0.010095313402251786
 5 0.013397917222554456
 6 0.050134002974354844
 7 -0.12562478430047175
 8 -2.824497540458432e-15
 9 0.020267447831240265
 10 0.013416441675750471
 11 0.050078630644326071
 12 -0.12548400792929307
 13 -0.017477509569031477
 14 -0.010095313402252774
 15 0.013397917222557211
 16 0.050134002974352609
 17 -0.12562478430046725
 18 -2.491918456961516e-15
 19 -0.020267447831238954
 20 -0.013416441675751296
 21 0.050078630644319583
 22 -0.12548400792927616
 23 0.017477509569028236
 24 0.010095313402254738
 25 -0.01339791722255472
 26 0.050078630644332434
 27 -0.12548400792930789
 28 -0.017477509569039859
 29 0.01009531340225879
 30 -0.013397917222558731
 31 0.083853095486441792
 32 -0.29861209683509532
 33 -0.027487307382110852
 34 0.01584954737191948
 35 0.01731659555283193
 36 0.084021174832005455
 37 -0.29920886516628253
 38 -3.0047750854470709e-16
 39 -0.0317961125531767
 40 0.017348790111425576
 41 0.083853095486462442
 42 -0.29861209683516943
 43 0.027487307382118117
 44 0.015849547371923768
 45 0.017316595552835996
 46 0.084021174831998946
 47 -0.29920886516625866
 48 -4.3685674260920399e-16
 49 0.031796112553176437
 50 -0.01734879011142379
 51 0.083853095486455587
 52 -0.29861209683514522
 53 -0.027487307382114981
 54 -0.015849547371921732
 55 -0.017316595552834813
 56 0.083853095486487852
 57 -0.29861209683526213
 58 0.027487307382123495
 59 -0.015849547371926773
 60 -0.017316595552840257
 61 -0.017296266918316761
 62 -0.017312428555074727
 63 -0.017296266918320424
 64 -0.01731242855507438
 65 -0.017296266918317177
 66 -0.017296266918321757
 67 -0.050287185377372444
 68 -0.050386580990421072
 69 -0.050287185377383845
 70 -0.050386580990416339
 71 -0.050287185377382172
 72 -0.050287185377399186
Sym= A
Ene= -1.3105511988445557
Spin= Alpha
Occup= 2
 1 -0.028649142359128785