[Molden Format]
[Title]
generated by GANSU
[Atoms] (Angs)
C 1 6 0 0 0.379
H 2 1 0 0 1.47
C 3 6 0 1.469 -0.099
C 4 6 1.273 -0.735 -0.099
C 5 6 -1.273 -0.735 -0.099
H 6 1 0 1.521 -1.184
H 7 1 1.317 -0.76 -1.184
H 8 1 -1.317 -0.76 -1.184
H 9 1 0.88 1.99 0.266
H 10 1 -0.88 1.99 0.266
H 11 1 1.283 -1.757 0.266
H 12 1 2.163 -0.233 0.266
H 13 1 -2.163 -0.233 0.266
H 14 1 -1.283 -1.757 0.266
[GTO]
1 0
 s 3 1.00
    13.0451 0.535328
    3.53051 0.444635
    71.6168 0.154329
 s 3 1.00
    2.94125 -0.0999672
    0.683483 0.399513
    0.22229 0.700115
 p 3 1.00
    2.94125 0.155916
    0.683483 0.607684
    0.22229 0.391957

2 0
 s 3 1.00
    3.42525 0.154329
    0.623914 0.535328
    0.168855 0.444635

3 0
 s 3 1.00
    13.0451 0.535328
    3.53051 0.444635
    71.6168 0.154329
 s 3 1.00
    2.94125 -0.0999672
    0.683483 0.399513
    0.22229 0.700115
 p 3 1.00
    2.94125 0.155916
    0.683483 0.607684
    0.22229 0.391957

4 0
 s 3 1.00
    71.6168 0.154329
    13.0451 0.535328
    3.53051 0.444635
 s 3 1.00
    2.94125 -0.0999672
    0.683483 0.399513
    0.22229 0.700115
 p 3 1.00
    0.22229 0.391957
    0.683483 0.607684
    2.94125 0.155916

5 0
 s 3 1.00
    3.53051 0.444635
    13.0451 0.535328
    71.6168 0.154329
 s 3 1.00
    0.683483 0.399513
    2.94125 -0.0999672
    0.22229 0.700115
 p 3 1.00
    0.22229 0.391957
    0.683483 0.607684
    2.94125 0.155916

6 0
 s 3 1.00
    3.42525 0.154329
    0.623914 0.535328
    0.168855 0.444635

7 0
 s 3 1.00
    0.168855 0.444635
    0.623914 0.535328
    3.42525 0.154329

8 0
 s 3 1.00
    0.168855 0.444635
    0.623914 0.535328
    3.42525 0.154329

9 0
 s 3 1.00
    0.168855 0.444635
    0.623914 0.535328
    3.42525 0.154329

10 0
 s 3 1.00
    0.168855 0.444635
    0.623914 0.535328
    3.42525 0.154329

11 0
 s 3 1.00
    3.42525 0.154329
    0.623914 0.535328
    0.168855 0.444635

12 0
 s 3 1.00
    3.42525 0.154329
    0.623914 0.535328
    0.168855 0.444635

13 0
 s 3 1.00
    3.42525 0.154329
    0.623914 0.535328
    0.168855 0.444635

14 0
 s 3 1.00
    3.42525 0.154329
    0.623914 0.535328
    0.168855 0.444635

[MO]
Sym= A
Ene= -11.0481
Spin= Alpha
Occup= 2
 1 -0.9918865064192961
 2 -0.03683899737374273
 3 -1.0254714950623605e-16
 4 -6.4704725134380345e-06
 5 -0.00036779829783643045
 6 0.0070415481255168329
 7 0.0076567983659369928
 8 0.0059111455992971193
 9 5.2317947834169243e-17
 10 -0.0034127812299978798
 11 0.0011239693614210804
 12 0.0076966534405735771
 13 0.0059029527511398183
 14 -0.0029528699569954012
 15 0.0017052418913184402
 16 0.0011220687245578767
 17 0.0076966534405718632
 18 0.0059029527511393239
 19 0.0029528699569953895
 20 0.0017052418913185699
 21 0.0011220687245578594
 22 -6.6021262452419793e-05
 23 -6.5926759704007458e-05
 24 -6.5926759703798614e-05
 25 -0.00011701801347227327
 26 -0.00011701801347215396
 27 -0.00011716934855864991
 28 -0.00011728729767758099
 29 -0.00011728729767752139
 30 -0.0001171693485583335
Sym= A
Ene= -11.029437355284925
Spin= Alpha
Occup= 2
 1 -1.1419982994710016e-12
 2 4.8620785110949767e-13
 3 0.0041368398416892103
 4 -3.0194064595229373e-11
 5 -1.0313995044709392e-13
 6 -8.0788871612486944e-16
 7 5.8753637961195583e-09
 8 2.2337626054734311e-10
 9 0.00018857125460263667
 10 2.3546794469709097e-12
 11 -1.2515994594935627e-12
 12 -0.70138577359349841
 13 -0.026671228562811986
 14 -0.0001980715997237998
 15 0.00022127625067317353
 16 0.00014726689486325924
 17 0.70138576761529425
 18 0.026671228335475319
 19 -0.00019807159643334821
 20 -0.00022127625155038413
 21 -0.00014726689361804434
 22 -4.1715378823280172e-11
 23 0.0049800249698823294
 24 -0.0049800249274445183
 25 -9.9344694518879015e-05
 26 9.9344611902290857e-05
 27 0.0049853006590662189
 28 0.0048877955570561507
 29 -0.0048877955137078162
 30 -0.0049853006182455249
Sym= A
Ene= -11.029436178985673
Spin= Alpha
Occup= 2
 1 0.0001645555498835841
 2 -7.1552108839015486e-05
 3 3.0186981323177246e-11
 4 0.0041377621336815777
 5 1.5140051895266195e-05
 6 1.0628171647015252e-07
 7 -0.8048482452395852
 8 -0.030599587347410435
 9 1.3778503343580657e-12
 10 -0.00032251227381289196
 11 0.00017153466203395436
 12 0.40994114907111479
 13 0.01558914901858211
 14 0.00022562396627615972
 15 6.000523735127586e-05
 16 -8.5339116861501437e-05
 17 0.40994115930725855
 18 0.015589149407831607
 19 -0.00022562396916595009
 20 6.0005234120861843e-05
 21 -8.5339119009043672e-05
 22 0.0057145082333120616
 23 -0.0029100872190400032
 24 -0.0029100872917220805
 25 0.0056586006745423479
 26 0.005658600675995747
 27 -0.0027993172382061548
 28 -0.0029725034008760737
 29 -0.0029725034722099747
 30 -0.0027993173109657904
Sym= A
Ene= -11.029323192280646
Spin= Alpha
Occup= 2
 1 -0.015033246845659647
 2 0.0089814624149803304
 3 1.6495489086663925e-14
 4 3.7165147512326966e-05
 5 -0.0018820766889974673
 6 2.109607886379437e-05
 7 -0.5797543853773951
 8 -0.0221144828667467
 9 9.0706155317332839e-16
 10 -0.00032855610500445861
 11 9.0130953760835449e-06
 12 -0.56912266439224968
 13 -0.021714831354328338
 14 -0.00028093786526706729
 15 0.00016307071472414512
 16 5.6456084312703377e-06
 17 -0.56912266438664516
 18 -0.021714831354114845
 19 0.00028093786526539914
 20 0.00016307071472247385
 21 5.6456084301312919e-06
 22 0.0040919911555479353
 23 0.004017514970672798
 24 0.0040175149706329245
 25 0.0041770797758955945
 26 0.0041770797758966709
 27 0.0041064906384275131
 28 0.004106453400964904
 29 0.0041064534009255171
 30 0.0041064906383876769
Sym= A
Ene= -1.0358854235145385
Spin= Alpha
Occup= 2
 1 0.15996204566470976
 2 -0.43094258201405822
 3 -6.0367986761971537e-16
 4 -0.00012898926447167943
 5 0.021738750924654937
 6 -0.096597322463345167
 7 0.10303419295918449
 8 -0.27647600256332217
 9 -2.8462606554085686e-16
 10 0.048568793765107941
 11 -0.012367394249762178
 12 0.10296956026285983
 13 -0.27631688775525198
 14 0.041959468256604612
 15 -0.024255145570566242
 16 -0.012349305333379135
 17 0.10296956026285836
 18 -0.27631688775524771
 19 -0.041959468256604841
 20 -0.024255145570565635
 21 -0.012349305333378925
 22 -0.062878502024998631
 23 -0.062875407873096797
 24 -0.06287540787309516
 25 -0.060317202732931875
 26 -0.060317202732930321
 27 -0.060355370708995985
 28 -0.0603867183086629
 29 -0.060386718308662164
 30 -0.060355370708994278
Sym= A
Ene= -0.89129689201423634
Spin= Alpha
Occup= 2
 1 -2.2178498620337891e-15
 2 6.8376393978293353e-15
 3 -0.13622916372139074
 4 9.4672415684221548e-13
 5 1.1881266263954542e-16
 6 1.6764007324192909e-15
 7 -1.2635277535536217e-12
 8 3.633604260759691e-12
 9 -0.025606183971587482
 10 1.7768011015165867e-13
 11 -5.0739310429594162e-15
 12 0.15770704005961378
 13 -0.45351327808502589
 14 -0.025727951285135518
 15 1.9688015078513713e-05
 16 0.00065971846743447503
 17 -0.15770704005834973
 18 0.45351327808138975
 19 -0.02572795128513267
 20 -1.9688014722048872e-05
 21 -0.00065971846742850107
 22 1.0652938333327408e-12
 23 -0.13296781628541995
 24 0.13296781628435342
 25 -0.014157824913822911
 26 0.014157824916049291
 27 -0.13193360324328762
 28 -0.14617514253648725
 29 0.14617514253554045
 30 0.13193360324200232
Sym= A
Ene= -0.89119227694352687
Spin= Alpha
Occup= 2
 1 0.00010750472171733782
 2 -0.00029880082152062486
 3 -9.448292053957919e-13
 4 -0.13637291161985862
 5 1.3680233190845661e-05
 6 -7.6427299850543543e-05
 7 0.1820403613493872
 8 -0.52356232768339517
 9 -1.7919830339197263e-13
 10 -0.025663432628833756
 11 0.0007985291954432218
 12 -0.091115245624807578
 13 0.26203403478612297
 14 0.00012327139683876998
 15 -0.025656046937234955
 16 -0.00039439992045951051
 17 -0.091115245626996605
 18 0.26203403479241727
 19 -0.00012327139719640158
 20 -0.025656046937235333
 21 -0.00039439992046945091
 22 -0.1535389099694022
 23 0.076837363572094933
 24 0.076837363573941567
 25 -0.16038252302164069
 26 -0.16038252302144329
 27 0.092630780307799129
 28 0.068104681262494152
 29 0.068104681264522737
 30 0.092630780309630789
Sym= A
Ene= -0.73512045398810688
Spin= Alpha
Occup= 2
 1 -0.14803285610237632
 2 0.47275302854904633
 3 1.1303874235989776e-15
 4 1.2431050572256174e-05
 5 0.12942104784257488
 6 0.26120434166150586
 7 0.064910301057424319
 8 -0.20151925450453168
 9 -2.9954725979453117e-16
 10 -0.12813806630483079
 11 0.081333667820684741
 12 0.064809761364640353
 13 -0.20113174614622373
 14 -0.1107934588346379
 15 0.063880960013037294
 16 0.081119385589140447
 17 0.064809761364641838
 18 -0.20113174614622834
 19 0.11079345883463732
 20 0.063880960013036753
 21 0.08111938558913992
 22 -0.13916055123284188
 23 -0.1388129319719168
 24 -0.13881293197191719
 25 -0.096789857697236706
 26 -0.096789857697236595
 27 -0.096580707779916342
 28 -0.096691773481632395
 29 -0.096691773481632506
 30 -0.096580707779916869
Sym= A
Ene= -0.59818670639325144
Spin= Alpha
Occup= 2
 1 0.03798361138271495
 2 -0.13694003228992355
 3 -4.561061971117431e-16
 4 -0.00013186206414008203
 5 0.27041843588648806
 6 0.20059567356907781
 7 -0.010854023962123415
 8 0.03155545801803139
 9 3.3141407128663909e-16
 10 0.17670401592300672
 11 0.16292753522546277
 12 -0.010842885097226841
 13 0.031449836044510147
 14 0.15284927740829479
 15 -0.088265059543418983
 16 0.16340168480815903
 17 -0.010842885097227294
 18 0.031449836044512146
 19 -0.15284927740829118
 20 -0.088265059543417665
 21 0.16340168480815256
 22 -0.13823484476826695
 23 -0.1389249032463018
 24 -0.13892490324629581
 25 0.14689539068484059
 26 0.14689539068484042
 27 0.14688620124796808
 28 0.1469282070619175
 29 0.14692820706191334
 30 0.14688620124796503
Sym= A
Ene= -0.55919929419428316
Spin= Alpha
Occup= 2
 1 4.5056416567718359e-05
 2 -0.00020038996400064324
 3 8.7845149229430948e-12
 4 0.21286800113293838
 5 9.3131710117314147e-06
 6 -8.2837217183920038e-05
 7 0.014155340291257474
 8 -0.044496154067245962
 9 1.4005073394906579e-11
 10 -0.15309171049233278
 11 0.087720302999319433
 12 -0.007093700090220533
 13 0.022253951180791234
 14 0.21381755121619297
 15 0.21702994977023654
 16 -0.043681762797460062
 17 -0.0070937000912332706
 18 0.022253951183971412
 19 -0.21381755121864376
 20 0.21702994975255785
 21 -0.043681762803686963
 22 -0.10959272023034393
 23 0.054619538159635189
 24 0.054619538167416083
 25 -0.052795031947870601
 26 -0.052795031970852981
 27 -0.21552355645654989
 28 0.26843492149677745
 29 0.26843492148900666
 30 -0.21552355644119089
Sym= A
Ene= -0.55896290992308517
Spin= Alpha
Occup= 2
 1 -1.5562892695625398e-15
 2 6.9258012714897761e-15
 3 0.21306828249406459
 4 -8.7788210927509306e-12
 5 -1.6186646172186408e-15
 6 1.9119120503946383e-15
 7 -5.8331017298508877e-13
 8 1.8340525580144452e-12
 9 0.33993542957740847
 10 6.3095883097299173e-12
 11 -3.6207502601249714e-12
 12 0.012300939238898186
 13 -0.038641089102602645
 14 -0.029547058042746339
 15 0.21427009977901804
 16 0.075841977837644056
 17 -0.012300939238313522
 18 0.038641089100768779
 19 -0.029547058025120337
 20 -0.2142700997969052
 21 -0.07584197783403665
 22 4.5265048254955568e-12
 23 -0.094717937426368456
 24 0.094717937421854317
 25 0.27888204603100042
 26 -0.27888204602665595
 27 -0.18601024984147385
 28 0.094354928095669352
 29 -0.094354928117787451
 30 0.18601024985923884
Sym= A
Ene= -0.50765631326339788
Spin= Alpha
Occup= 2
 1 -1.1598993592915168e-16
 2 5.256650413789066e-16
 3 0.06194534030760511
 4 2.417097194491136e-13
 5 -2.3258390328151323e-15
 6 -2.8462564722627537e-15
 7 4.923794473012339e-16
 8 2.421513947894454e-15
 9 -0.076226065230321494
 10 2.6119249898805736e-13
 11 1.4586147065036687e-12
 12 0.00010016565098880738
 13 0.00060952344689223117
 14 0.034987291914115232
 15 -0.065273668516977315
 16 0.33880378120855659
 17 -0.00010016565098944642
 18 -0.00060952344689388274
 19 0.034987291914580811
 20 0.06527366851669926
 21 -0.33880378121001753
 22 -1.5409584355851234e-12
 23 -0.35743810419210648
 24 0.35743810419364996
 25 -0.062932108516230365
 26 0.06293210851755815
 27 0.18731604939905733
 28 0.12284053282915017
 29 -0.12284053283020951
 30 -0.18731604939932917
Sym= A
Ene= -0.5075420281512848
Spin= Alpha
Occup= 2
 1 -8.2402408053223536e-05
 2 0.0003279061495966674
 3 2.2379883481021996e-13
 4 -0.062545777769665772
 5 -0.00044385685290722387
 6 -0.00033433499100341327
 7 -5.3312807734830167e-05
 8 -0.00097712157212824394
 9 -2.9394425513059672e-13
 10 -0.072345252650960964
 11 -0.39122852187476942
 12 5.0984750405541672e-05
 13 0.00038720378392242662
 14 0.064445951951295904
 15 0.039957819050684566
 16 0.19568404604246006
 17 5.0984750404823524e-05
 18 0.00038720378391755432
 19 -0.064445951951026134
 20 0.039957819051171836
 21 0.19568404603994019
 22 0.41261942133452933
 23 -0.2064666003653213
 24 -0.20646660036266326
 25 -0.17902031359072615
 26 -0.17902031359024215
 27 0.034032883150890571
 28 0.14460656337682579
 29 0.14460656337590513
 30 0.034032883149496186
Sym= A
Ene= -0.48540533551109122
Spin= Alpha
Occup= 2
 1 -5.1238326408081169e-17
 2 8.0071779661473691e-17
 3 -0.0012385172695251801
 4 -7.5659820524352897e-15
 5 3.0363256418699452e-17
 6 4.2776316613401397e-16
 7 -2.7483298366854291e-17
 8 -4.67836734053738e-16
 9 -0.28817085819871385
 10 9.0438495049891395e-15
 11 3.0756880263401292e-15
 12 4.6941831104742912e-05
 13 -0.00020903280425364163
 14 0.14475157871894309
 15 0.24842747072471918
 16 0.00052079097180253995
 17 -4.6941831104756749e-05
 18 0.00020903280425377978
 19 0.14475157871895486
 20 -0.24842747072472043
 21 -0.00052079097180674535
 22 -4.8736113482230676e-15
 23 -0.00055030344372792867
 24 0.00055030344373360415
 25 -0.25929961959338321
 26 0.25929961959339576
 27 -0.25818360593135536
 28 0.25956043828892011
 29 -0.25956043828892911
 30 0.25818360593135314
Sym= A
Ene= -0.42593472644658592
Spin= Alpha
Occup= 2
 1 -0.013059737631703797
 2 0.06248140697476566
 3 -1.2112297600496736e-14
 4 0.010115155533365021
 5 -0.37837595931399798
 6 -0.45360045679170091
 7 -0.014545017734951845
 8 0.061801500594484332
 9 3.3435048952436546e-15
 10 -0.092652284465113824
 11 0.20286413399057271
 12 -0.013296671328296502
 13 0.056792346476451386
 14 -0.069619946244843092
 15 0.035562686579041235
 16 0.20099976286931442
 17 -0.013296671328298044
 18 0.056792346476457777
 19 0.069619946244861702
 20 0.035562686579046307
 21 0.20099976286932003
 22 -0.2552798115986093
 23 -0.25457005750643874
 24 -0.2545700575064424
 25 0.064712179875537068
 26 0.064712179875526327
 27 0.074874598786609819
 28 0.066125973786542225
 29 0.066125973786529485
 30 0.074874598786608001
Sym= A
Ene= -0.42058924130526237
Spin= Alpha
Occup= 2
 1 0.00041022449993122646
 2 -0.0020043996244467656
 3 -3.9022976349267488e-12
 4 0.40031468933846781
 5 0.0096618349161847108
 6 0.011496082433984017
 7 -0.031489662514953852
 8 0.12680184858793947
 9 1.7263240098151231e-12
 10 -0.38422735224742421
 11 0.035303507598070695
 12 0.016211101822294627
 13 -0.065493747155455334
 14 0.09299744239265971
 15 -0.22998102845073876
 16 -0.025345696017788778
 17 0.016211101821758288
 18 -0.065493747153291093
 19 -0.09299744238614778
 20 -0.22998102844896512
 21 -0.025345696017096603
 22 0.00067798705341185601
 23 0.0093482379279325629
 24 0.0093482379278254021
 25 -0.16062011311737903
 26 -0.16062011312120708
 27 0.24721855396841311
 28 -0.091716385997698019
 29 -0.091716386002278924
 30 0.24721855396764478
Sym= A
Ene= -0.42035770013273432
Spin= Alpha
Occup= 2
 1 4.2010279653985309e-15
 2 -2.0302616127158517e-14
 3 0.4005493050635312
 4 3.8977137180795389e-12
 5 8.457208165321757e-14
 6 1.0001872547003855e-13
 7 -3.0822253093579902e-13
 8 1.2408848998772475e-12
 9 -0.17719281152100777
 10 -3.7442810787176212e-12
 11 3.4846016619617882e-13
 12 -0.027518291778635906
 13 0.11104883263331894
 14 -0.3337075279593833
 15 0.091513706833839664
 16 0.035560888638871926
 17 0.027518291778951411
 18 -0.11104883263459303
 19 -0.33370752796118541
 20 -0.09151370683832892
 21 -0.035560888639351855
 22 5.3830548923740892e-15
 23 -0.0055148566305729899
 24 0.0055148566307336704
 25 -0.19668195875269473
 26 0.19668195874956559
 27 -0.039911945880383923
 28 -0.2346824521436657
 29 0.23468245214187616
 30 0.039911945885218257
Sym= A
Ene= 0.60576186926167308
Spin= Alpha
Occup= 0
 1 -0.039409825411146064
 2 0.19413641069048576
 3 8.76419132195327e-15
 4 -0.0095609852530481529
 5 -0.58028528669662294
 6 0.66173597089793379
 7 0.036217311426573376
 8 -0.20807011716516113
 9 6.6022190817782254e-15
 10 0.11185317653472403
 11 -0.38373294805888014
 12 0.037555989591420064
 13 -0.21547147784151544
 14 0.1050786659588281
 15 -0.066034173485827422
 16 -0.38415164681189062
 17 0.037555989591418967
 18 -0.21547147784150883
 19 -0.10507866595882004
 20 -0.066034173485827977
 21 -0.38415164681187408
 22 -0.39342858575869588
 23 -0.39042816822999121
 24 -0.39042816822997534
 25 0.20973341036341764
 26 0.20973341036343096
 27 0.20171238806818861
 28 0.21204962355879164
 29 0.2120496235587912
 30 0.20171238806817698
Sym= A
Ene= 0.62135412044075422
Spin= Alpha
Occup= 0
 1 -6.6315735009918592e-15
 2 4.0981091256861724e-14
 3 0.6335955226283162
 4 -1.4708453791389358e-12
 5 2.4385586331759761e-14
 6 -5.092360809986105e-14
 7 -1.6541322125845965e-13
 8 9.3014217140503262e-13
 9 0.44394072044809774
 10 -1.1325043814709188e-12
 11 2.229341058599783e-13
 12 0.061168143062528185
 13 -0.34340441484000456
 14 0.48378949820809147
 15 -0.025304080100680758
 16 -0.070155992700263653
 17 -0.061168143062370582
 18 0.34340441483912393
 19 0.48378949820794687
 20 0.025304080098561006
 21 0.070155992700087849
 22 -1.6547383130649642e-13
 23 0.075126667708397835
 24 -0.07512666770819279
 25 -0.4733023081496473
 26 0.47330230814983149
 27 0.18998765521312011
 28 -0.27980050815003538
 29 0.27980050815176571
 30 -0.18998765521516758
Sym= A
Ene= 0.62202335001570874
Spin= Alpha
Occup= 0
 1 -0.00031077176040725913
 2 0.0021669541203952853
 3 -1.4606043242438094e-12
 4 -0.6341360370163911
 5 0.0082539312045442834
 6 -0.011692004895675422
 7 -0.07135799146853021
 8 0.40122928154547505
 9 -1.0210373965323308e-12
 10 -0.49817781327551258
 11 0.085051936499462966
 12 0.034721035971794184
 13 -0.19478827422618294
 14 0.025075203645488948
 15 -0.45693976562154121
 16 -0.034489999119873743
 17 0.034721035972074238
 18 -0.19478827422775127
 19 -0.025075203647734912
 20 -0.45693976562163952
 21 -0.034489999120203736
 22 -0.083286306549802513
 23 0.049440231932890169
 24 0.049440231933222931
 25 0.048251299402673871
 26 0.04825129940049748
 27 -0.43923018598763025
 28 0.37800711236553414
 29 0.37800711236421752
 30 -0.4392301859867408
Sym= A
Ene= 0.69216292693629011
Spin= Alpha
Occup= 0
 1 -0.17241425801426583
 2 1.043361344977372
 3 -1.3170405503346571e-14
 4 0.0024107873120381186
 5 0.015760087808441733
 6 -0.47069175568654087
 7 -0.037722423015654191
 8 0.25908932959850156
 9 -2.510434411290967e-14
 10 0.50013002868080592
 11 -0.066270263939215285
 12 -0.038518719838097008
 13 0.26420666028799217
 14 0.43034963177719177
 15 -0.24615141277775487
 16 -0.070841371011625034
 17 -0.038518719838090673
 18 0.26420666028795364
 19 -0.43034963177720742
 20 -0.24615141277772903
 21 -0.070841371011661866
 22 -0.17070989366059358
 23 -0.1778197557926352
 24 -0.17781975579266074
 25 -0.31750679902665918
 26 -0.3175067990267102
 27 -0.31362264279967056
 28 -0.31764720212194142
 29 -0.31764720212194053
 30 -0.31362264279960883
Sym= A
Ene= 0.71940363559059084
Spin= Alpha
Occup= 0
 1 0.001028314643919318
 2 -0.0062204042038656194
 3 -2.444465514904218e-12
 4 0.19391437350067395
 5 -0.0012070766424765054
 6 0.0041944318110236339
 7 0.019137592229887878
 8 -0.11402165623084194
 9 3.7861948985457273e-12
 10 0.32483653015733666
 11 0.61220120972913061
 12 -0.009780304615802678
 13 0.058010240090737082
 14 -0.27279893258193533
 15 -0.14132080132204311
 16 -0.30737485884286941
 17 -0.0097803046153986713
 18 0.058010240088345565
 19 0.27279893257757171
 20 -0.14132080132848862
 21 -0.30737485883002474
 22 0.74868884277159753
 23 -0.37634033503781633
 24 -0.37634033502209652
 25 -0.36928550521327708
 26 -0.36928550520633796
 27 -0.051872326207139059
 28 0.42415212773573491
 29 0.4241521277310128
 30 -0.051872326218107015
Sym= A
Ene= 0.71956454001848635
Spin= Alpha
Occup= 0
 1 -1.3742343683664295e-14
 2 8.4104647150785226e-14
 3 -0.19715696342937641
 4 -2.3708951165318418e-12
 5 2.8559712940989709e-14
 6 -6.8296986120599954e-14
 7 -2.3946877155855438e-13
 8 1.4281704476382701e-12
 9 0.30142371665445178
 10 -3.9475616520679664e-12
 11 -7.4486274704737058e-12
 12 -0.01694484842986602
 13 0.10066548924829383
 14 -0.17274212023602314
 15 0.2701024153148246
 16 -0.52983589462571379
 17 0.016944848430093949
 18 -0.10066548924963971
 19 -0.1727421202426917
 20 -0.27010241531139251
 21 0.52983589463318459
 22 -9.1248674526979871e-12
 23 -0.6491353986814854
 24 0.64913539869061099
 25 -0.27669113904214732
 26 0.27669113905109571
 27 0.4558706274939765
 28 0.18503924348716477
 29 -0.18503924349753237
 30 -0.45587062749274737
Sym= A
Ene= 0.75725985026068132
Spin= Alpha
Occup= 0
 1 -0.17002540682102818
 2 1.013911703387979
 3 9.0781361536979511e-16
 4 -0.0017721646849225999
 5 -0.10766792004123674
 6 -0.38861868719584242
 7 0.14103254631195275
 8 -0.88656127839088728
 9 -1.6327842940254833e-13
 10 0.12643198828743954
 11 0.10521953251695529
 12 0.13845497739725576
 13 -0.86995790796354255
 14 0.11613649717060413
 15 -0.064451859587608046
 16 0.097152011582249412
 17 0.13845497739724777
 18 -0.86995790796348949
 19 -0.1161364971704679
 20 -0.0644518595879114
 21 0.097152011582281692
 22 0.45615322442697359
 23 0.44022722906511674
 24 0.44022722906512979
 25 0.2757606311049749
 26 0.27576063110468468
 27 0.27107918484781424
 28 0.26694939396759948
 29 0.26694939396784612
 30 0.27107918484746485
Sym= A
Ene= 0.75964273985612418
Spin= Alpha
Occup= 0
 1 -4.8812767880445955e-14
 2 2.920133574873122e-13
 3 -0.0047546936113568314
 4 -2.3467341912289136e-14
 5 -4.0889668933484447e-14
 6 -1.0351026593357514e-13
 7 2.5524923678483196e-14
 8 -1.5736324956078687e-13
 9 0.56132153470328605
 10 1.7429849311719608e-14
 11 -9.9390773195551032e-14
 12 -0.00059400588815279771
 13 0.0036320482140859661
 14 -0.28092289577887292
 15 -0.4852318667707971
 16 0.0042133380217437514
 17 0.00059400588825113659
 18 -0.0036320482147050707
 19 -0.28092289577900847
 20 0.4852318667708298
 21 -0.0042133380215400289
 22 -6.0323477142717018e-14
 23 0.0030974860411163629
 24 -0.0030974860406470088
 25 -0.50283564900759636
 26 0.50283564900780109
 27 -0.50602944877824174
 28 0.50042928005310372
 29 -0.50042928005306064
 30 0.50602944877846312
Sym= A
Ene= 0.77319211823523837
Spin= Alpha
Occup= 0
 1 2.4504033264146153e-15
 2 -1.4640674246604469e-14
 3 0.19254543024723259
 4 -2.2703104964179406e-13
 5 5.3075039755568573e-15
 6 2.196419202710112e-16
 7 2.5901701167987227e-13
 8 -1.6864286524956249e-12
 9 -0.22534420255162507
 10 -7.1689880486835829e-13
 11 4.7862300399971356e-13
 12 -0.12275878922604844
 13 0.80146040469502788
 14 0.26909016337187064
 15 -0.28615816584596193
 16 -0.24905529542400578
 17 0.12275878922579124
 18 -0.80146040469335245
 19 0.26909016337102482
 20 0.28615816584604942
 21 0.24905529542353133
 22 1.2507036703740603e-12
 23 -0.61527361838409633
 24 0.61527361838285599
 25 0.20770824171944455
 26 -0.20770824171768287
 27 -0.53567375835527631
 28 -0.32676806696447985
 29 0.32676806696313632
 30 0.53567375835488873
Sym= A
Ene= 0.77342409785866972
Spin= Alpha
Occup= 0
 1 0.0023392288985290047
 2 -0.014075405144639433
 3 -3.2679383679532513e-13
 4 -0.18064778411155999
 5 0.0030688768489875269
 6 0.0035572946891043065
 7 0.14234194817386578
 8 -0.92895021888505858
 9 4.1406399889334366e-13
 10 -0.4368945849963487
 11 0.27891395249854023
 12 -0.07365427066273586
 13 0.48030229688979853
 14 0.27873879497660509
 15 0.055509064738011829
 16 -0.14122894007794531
 17 -0.073654270663152929
 18 0.48030229689252241
 19 -0.27873879497757509
 20 0.055509064737127981
 21 -0.14122894007879153
 22 0.70364529893414074
 23 -0.35948690268075101
 24 -0.35948690268284261
 25 0.50316780762405611
 26 0.50316780762481761
 27 -0.081426904151132393
 28 -0.42959352130249973
 29 -0.42959352130370576
 30 -0.081426904152859539
Sym= A
Ene= 0.79732608450568287
Spin= Alpha
Occup= 0
 1 1.2968424291148741e-14
 2 -8.5085905292485042e-14
 3 -0.6433164255136109
 4 -1.8402103072639507e-11
 5 -1.4522721583370705e-14
 6 4.5080305833662131e-14
 7 -3.4553911379093677e-12
 8 2.2044219321306054e-11
 9 0.5051381526771348
 10 -2.473347513758846e-12
 11 1.0526175601801947e-11
 12 -0.10768452659346071
 13 0.68760217492526543
 14 0.07125932733976352
 15 0.25605547799407058
 16 0.31761490426811434
 17 0.10768452659691666
 18 -0.68760217494731524
 19 0.071259327325048485
 20 -0.25605547797339878
 21 -0.31761490427861
 22 1.5867089029054422e-12
 23 0.03826918722098991
 24 -0.038269187222550134
 25 -0.38516487717612535
 26 0.38516487715340375
 27 -0.15943274916466199
 28 -0.5535366830471935
 29 0.5535366830392594
 30 0.15943274919538428
Sym= A
Ene= 0.79736439910907542
Spin= Alpha
Occup= 0
 1 0.00053512479832345681
 2 -0.0034295619715055074
 3 1.8283916990230903e-11
 4 -0.64762271998587206
 5 3.1871891879659909e-05
 6 0.0013004696106941663
 7 -0.12179998617631618
 8 0.77704060682084031
 9 -1.4389405471915096e-11
 10 -0.08675315019997136
 11 0.37077238717949712
 12 0.060762658999072391
 13 -0.387710781107175
 14 0.25861817369437695
 15 0.3639996734214041
 16 -0.18517471248731135
 17 0.06076265899298397
 18 -0.38771078106830148
 19 -0.25861817369836243
 20 0.36399967343599671
 21 -0.18517471246922945
 22 0.055766223507131542
 23 -0.028037389349596188
 24 -0.028037389347299862
 25 -0.40064788215363517
 26 -0.40064788217559327
 27 0.54087935204027726
 28 -0.13940561783667688
 29 -0.13940561786802969
 30 0.54087935203133219
Sym= A
Ene= 0.82319514500972979
Spin= Alpha
Occup= 0
 1 -0.058545702955463658
 2 0.39345725824398581
 3 -7.7278296278163069e-15
 4 2.6101637052060616e-05
 5 0.75890172817231649
 6 -0.85473908252866426
 7 0.0036061555161972783
 8 -0.019487766550786892
 9 1.3681400705315047e-14
 10 -0.19179277124666738
 11 -0.37856241393334938
 12 0.0040351031721604664
 13 -0.022477108430772968
 14 -0.16693194519744461
 15 0.096024452871403418
 16 -0.37804564635699273
 17 0.0040351031721627293
 18 -0.022477108430787703
 19 0.16693194519744228
 20 0.096024452871410121
 21 -0.37804564635700794
 22 -0.32749309512064673
 23 -0.32589717854146338
 24 -0.32589717854147388
 25 0.21981452331089421
 26 0.21981452331091686
 27 0.22089818813759685
 28 0.22166205153978036
 29 0.22166205153978569
 30 0.22089818813761594
