[Molden Format]
[Title]
generated by GANSU
[Atoms] (Angs)
O 1 8 2.4802 1.6091 1.0171
N 2 7 0.4729 -2.2418 0.4751
N 3 7 -5.1983 -0.2437 0.1998
N 4 7 4.1981 0.4702 -0.0574
C 5 6 -0.7385 -1.3851 0.5912
C 6 6 -0.6067 0.0201 -0.0673
C 7 6 -2.05 -2.1699 0.2259
C 8 6 1.8612 -0.2866 -0.2462
C 9 6 1.6814 -1.4473 0.7414
C 10 6 -3.2208 -1.2547 0.2186
C 11 6 -1.8358 0.8415 -0.1843
C 12 6 -3.0277 0.1264 -0.0011
C 13 6 0.591 0.4819 -0.4721
C 14 6 -4.2667 0.7466 -0.0259
C 15 6 0.5883 -2.9739 -0.7864
C 16 6 2.8655 0.6842 0.297
C 17 6 -4.5736 -1.4628 0.3455
C 18 6 -1.9503 2.2203 -0.4077
C 19 6 -4.3946 2.1182 -0.2476
C 20 6 -3.2076 2.8404 -0.4409
C 21 6 5.2755 1.3378 0.4008
C 22 6 4.6102 -0.6392 -0.9137
C 23 6 5.8541 0.8463 1.7169
C 24 6 4.5924 -0.2378 -2.3788
H 25 1 -0.8336 -1.1669 1.6679
H 26 1 -2.205 -2.989 0.9378
H 27 1 -1.9844 -2.6039 -0.7784
H 28 1 2.1425 -0.6596 -1.2324
H 29 1 2.5606 -2.1019 0.7495
H 30 1 1.6242 -1.0642 1.7708
H 31 1 0.6777 1.4409 -0.9767
H 32 1 -0.1513 -3.7795 -0.836
H 33 1 1.5626 -3.4714 -0.8601
H 34 1 0.4664 -2.3344 -1.6667
H 35 1 -5.1544 -2.3592 0.5115
H 36 1 -1.0678 2.8397 -0.5437
H 37 1 -6.1978 -0.0995 0.2397
H 38 1 -5.3619 2.6073 -0.2693
H 39 1 -3.2646 3.9129 -0.6133
H 40 1 6.052 1.4046 -0.3685
H 41 1 4.8717 2.3457 0.5488
H 42 1 5.6243 -0.9446 -0.6299
H 43 1 3.9874 -1.5218 -0.7642
H 44 1 5.0837 0.8028 2.494
H 45 1 6.2792 -0.1572 1.6136
H 46 1 6.6467 1.519 2.0585
H 47 1 3.6067 0.1092 -2.7018
H 48 1 5.3016 0.5742 -2.571
H 49 1 4.8777 -1.0876 -3.0068
[GTO]
1 0
 s 3 1.00
    23.8089 0.535328
    6.44361 0.444635
    130.709 0.154329
 s 3 1.00
    5.03315 -0.0999672
    1.1696 0.399513
    0.380389 0.700115
 p 3 1.00
    1.1696 0.607684
    5.03315 0.155916
    0.380389 0.391957

2 0
 s 3 1.00
    99.1062 0.154329
    18.0523 0.535328
    4.88566 0.444635
 s 3 1.00
    3.78046 -0.0999672
    0.878497 0.399513
    0.285714 0.700115
 p 3 1.00
    3.78046 0.155916
    0.285714 0.391957
    0.878497 0.607684

3 0
 s 3 1.00
    99.1062 0.154329
    4.88566 0.444635
    18.0523 0.535328
 s 3 1.00
    3.78046 -0.0999672
    0.878497 0.399513
    0.285714 0.700115
 p 3 1.00
    0.285714 0.391957
    0.878497 0.607684
    3.78046 0.155916

4 0
 s 3 1.00
    4.88566 0.444635
    18.0523 0.535328
    99.1062 0.154329
 s 3 1.00
    0.285714 0.700115
    0.878497 0.399513
    3.78046 -0.0999672
 p 3 1.00
    0.285714 0.391957
    0.878497 0.607684
    3.78046 0.155916

5 0
 s 3 1.00
    71.6168 0.154329
    13.0451 0.535328
    3.53051 0.444635
 s 3 1.00
    0.683483 0.399513
    2.94125 -0.0999672
    0.22229 0.700115
 p 3 1.00
    0.22229 0.391957
    0.683483 0.607684
    2.94125 0.155916

6 0
 s 3 1.00
    3.53051 0.444635
    71.6168 0.154329
    13.0451 0.535328
 s 3 1.00
    0.22229 0.700115
    2.94125 -0.0999672
    0.683483 0.399513
 p 3 1.00
    0.22229 0.391957
    0.683483 0.607684
    2.94125 0.155916

7 0
 s 3 1.00
    71.6168 0.154329
    13.0451 0.535328
    3.53051 0.444635
 s 3 1.00
    0.22229 0.700115
    0.683483 0.399513
    2.94125 -0.0999672
 p 3 1.00
    0.22229 0.391957
    0.683483 0.607684
    2.94125 0.155916

8 0
 s 3 1.00
    3.53051 0.444635
    13.0451 0.535328
    71.6168 0.154329
 s 3 1.00
    0.22229 0.700115
    0.683483 0.399513
    2.94125 -0.0999672
 p 3 1.00
    2.94125 0.155916
    0.683483 0.607684
    0.22229 0.391957

9 0
 s 3 1.00
    13.0451 0.535328
    3.53051 0.444635
    71.6168 0.154329
 s 3 1.00
    0.683483 0.399513
    2.94125 -0.0999672
    0.22229 0.700115
 p 3 1.00
    2.94125 0.155916
    0.683483 0.607684
    0.22229 0.391957

10 0
 s 3 1.00
    71.6168 0.154329
    13.0451 0.535328
    3.53051 0.444635
 s 3 1.00
    2.94125 -0.0999672
    0.683483 0.399513
    0.22229 0.700115
 p 3 1.00
    2.94125 0.155916
    0.683483 0.607684
    0.22229 0.391957

11 0
 s 3 1.00
    71.6168 0.154329
    13.0451 0.535328
    3.53051 0.444635
 s 3 1.00
    2.94125 -0.0999672
    0.683483 0.399513
    0.22229 0.700115
 p 3 1.00
    0.683483 0.607684
    0.22229 0.391957
    2.94125 0.155916

12 0
 s 3 1.00
    71.6168 0.154329
    3.53051 0.444635
    13.0451 0.535328
 s 3 1.00
    2.94125 -0.0999672
    0.683483 0.399513
    0.22229 0.700115
 p 3 1.00
    2.94125 0.155916
    0.683483 0.607684
    0.22229 0.391957

13 0
 s 3 1.00
    13.0451 0.535328
    71.6168 0.154329
    3.53051 0.444635
 s 3 1.00
    0.22229 0.700115
    2.94125 -0.0999672
    0.683483 0.399513
 p 3 1.00
    2.94125 0.155916
    0.683483 0.607684
    0.22229 0.391957

14 0
 s 3 1.00
    3.53051 0.444635
    13.0451 0.535328
    71.6168 0.154329
 s 3 1.00
    2.94125 -0.0999672
    0.683483 0.399513
    0.22229 0.700115
 p 3 1.00
    0.683483 0.607684
    0.22229 0.391957
    2.94125 0.155916

15 0
 s 3 1.00
    3.53051 0.444635
    13.0451 0.535328
    71.6168 0.154329
 s 3 1.00
    2.94125 -0.0999672
    0.683483 0.399513
    0.22229 0.700115
 p 3 1.00
    2.94125 0.155916
    0.683483 0.607684
    0.22229 0.391957

16 0
 s 3 1.00
    3.53051 0.444635
    13.0451 0.535328
    71.6168 0.154329
 s 3 1.00
    2.94125 -0.0999672
    0.683483 0.399513
    0.22229 0.700115
 p 3 1.00
    2.94125 0.155916
    0.683483 0.607684
    0.22229 0.391957

17 0
 s 3 1.00
    71.6168 0.154329
    13.0451 0.535328
    3.53051 0.444635
 s 3 1.00
    0.22229 0.700115
    0.683483 0.399513
    2.94125 -0.0999672
 p 3 1.00
    2.94125 0.155916
    0.683483 0.607684
    0.22229 0.391957

18 0
 s 3 1.00
    71.6168 0.154329
    13.0451 0.535328
    3.53051 0.444635
 s 3 1.00
    2.94125 -0.0999672
    0.683483 0.399513
    0.22229 0.700115
 p 3 1.00
    2.94125 0.155916
    0.683483 0.607684
    0.22229 0.391957

19 0
 s 3 1.00
    71.6168 0.154329
    13.0451 0.535328
    3.53051 0.444635
 s 3 1.00
    0.683483 0.399513
    2.94125 -0.0999672
    0.22229 0.700115
 p 3 1.00
    2.94125 0.155916
    0.683483 0.607684
    0.22229 0.391957

20 0
 s 3 1.00
    71.6168 0.154329
    13.0451 0.535328
    3.53051 0.444635
 s 3 1.00
    2.94125 -0.0999672
    0.683483 0.399513
    0.22229 0.700115
 p 3 1.00
    2.94125 0.155916
    0.683483 0.607684
    0.22229 0.391957

21 0
 s 3 1.00
    3.53051 0.444635
    13.0451 0.535328
    71.6168 0.154329
 s 3 1.00
    0.22229 0.700115
    0.683483 0.399513
    2.94125 -0.0999672
 p 3 1.00
    0.683483 0.607684
    0.22229 0.391957
    2.94125 0.155916

22 0
 s 3 1.00
    13.0451 0.535328
    3.53051 0.444635
    71.6168 0.154329
 s 3 1.00
    2.94125 -0.0999672
    0.683483 0.399513
    0.22229 0.700115
 p 3 1.00
    2.94125 0.155916
    0.683483 0.607684
    0.22229 0.391957

23 0
 s 3 1.00
    71.6168 0.154329
    13.0451 0.535328
    3.53051 0.444635
 s 3 1.00
    2.94125 -0.0999672
    0.683483 0.399513
    0.22229 0.700115
 p 3 1.00
    2.94125 0.155916
    0.683483 0.607684
    0.22229 0.391957

24 0
 s 3 1.00
    13.0451 0.535328
    71.6168 0.154329
    3.53051 0.444635
 s 3 1.00
    2.94125 -0.0999672
    0.683483 0.399513
    0.22229 0.700115
 p 3 1.00
    0.22229 0.391957
    2.94125 0.155916
    0.683483 0.607684

25 0
 s 3 1.00
    0.168855 0.444635
    0.623914 0.535328
    3.42525 0.154329

26 0
 s 3 1.00
    3.42525 0.154329
    0.623914 0.535328
    0.168855 0.444635

27 0
 s 3 1.00
    3.42525 0.154329
    0.623914 0.535328
    0.168855 0.444635

28 0
 s 3 1.00
    3.42525 0.154329
    0.623914 0.535328
    0.168855 0.444635

29 0
 s 3 1.00
    3.42525 0.154329
    0.168855 0.444635
    0.623914 0.535328

30 0
 s 3 1.00
    3.42525 0.154329
    0.623914 0.535328
    0.168855 0.444635

31 0
 s 3 1.00
    3.42525 0.154329
    0.623914 0.535328
    0.168855 0.444635

32 0
 s 3 1.00
    3.42525 0.154329
    0.623914 0.535328
    0.168855 0.444635

33 0
 s 3 1.00
    3.42525 0.154329
    0.623914 0.535328
    0.168855 0.444635

34 0
 s 3 1.00
    0.168855 0.444635
    0.623914 0.535328
    3.42525 0.154329

35 0
 s 3 1.00
    3.42525 0.154329
    0.623914 0.535328
    0.168855 0.444635

36 0
 s 3 1.00
    0.168855 0.444635
    3.42525 0.154329
    0.623914 0.535328

37 0
 s 3 1.00
    0.168855 0.444635
    0.623914 0.535328
    3.42525 0.154329

38 0
 s 3 1.00
    3.42525 0.154329
    0.623914 0.535328
    0.168855 0.444635

39 0
 s 3 1.00
    0.168855 0.444635
    0.623914 0.535328
    3.42525 0.154329

40 0
 s 3 1.00
    0.168855 0.444635
    0.623914 0.535328
    3.42525 0.154329

41 0
 s 3 1.00
    0.168855 0.444635
    0.623914 0.535328
    3.42525 0.154329

42 0
 s 3 1.00
    0.168855 0.444635
    0.623914 0.535328
    3.42525 0.154329

43 0
 s 3 1.00
    3.42525 0.154329
    0.623914 0.535328
    0.168855 0.444635

44 0
 s 3 1.00
    3.42525 0.154329
    0.623914 0.535328
    0.168855 0.444635

45 0
 s 3 1.00
    0.623914 0.535328
    0.168855 0.444635
    3.42525 0.154329

46 0
 s 3 1.00
    0.623914 0.535328
    0.168855 0.444635
    3.42525 0.154329

47 0
 s 3 1.00
    0.168855 0.444635
    0.623914 0.535328
    3.42525 0.154329

48 0
 s 3 1.00
    3.42525 0.154329
    0.168855 0.444635
    0.623914 0.535328

49 0
 s 3 1.00
    3.42525 0.154329
    0.623914 0.535328
    0.168855 0.444635

[MO]
Sym= A
Ene= -19.8199
Spin= Alpha
Occup= 2
 1 0.99404549498128103
 2 0.026885541096747227
 3 0.0014058238828537895
 4 -0.0032413829836373466
 5 -0.0025313036999857841
 6 -5.9029078869485069e-07
 7 9.7397637132641797e-06
 8 6.296511944418153e-06
 9 3.7255726996653997e-08
 10 6.7662874379716927e-07
 11 -1.7254765671385198e-09
 12 -2.3790789650749635e-08
 13 -9.6973756537403045e-09
 14 -3.6214030116436276e-09
 15 -2.0223170684544334e-08
 16 -2.3140673704753319e-05
 17 0.00027997069679899783
 18 5.377270386684595e-06
 19 0.00036417785413093512
 20 0.00026202567613602693
 21 3.7790007642101908e-07
 22 -2.1066437413502333e-06
 23 -3.0029110770763595e-06
 24 -2.8482635108883731e-06
 25 -4.8490014423880961e-07
 26 -2.8077932896538537e-06
 27 3.0512732960723462e-05
 28 2.192156374425015e-05
 29 1.0907750097302367e-05
 30 1.1559236686455175e-05
 31 3.82988625868844e-08
 32 -7.0650669045256214e-07
 33 -4.1458671206130093e-07
 34 5.1238699689605217e-08
 35 -4.7539481898474354e-07
 36 -1.9850597228765277e-05
 37 0.00031246879624167193
 38 -0.00016868956843949195
 39 0.00032649222547709349
 40 0.00021071734864697863
 41 -1.4037333916874585e-05
 42 6.2321112414260777e-05
 43 4.546035185679064e-05
 44 4.3289934175683293e-05
 45 1.4375049575437956e-05
 46 -1.4758978673232741e-08
 47 -2.3910090149626642e-08
 48 1.7492079592574923e-07
 49 7.9118587876236902e-09
 50 4.3920394390232908e-08
 51 9.9457632419795383e-08
 52 -1.3101646422111704e-06
 53 -8.6145022696920877e-07
 54 -1.5184926744119702e-06
 55 -7.0824024838034346e-07
 56 -5.2483885780192534e-08
 57 1.2458885680836212e-07
 58 3.2070121683447449e-07
 59 -2.6998036274071208e-07
 60 -1.6980070605231269e-08
 61 1.7304397088016127e-05
 62 -0.00011858405621777591
 63 -4.8815686453256237e-05
 64 2.2782177933654627e-05
 65 -0.00012297230628274247
 66 -1.1969311056658336e-08
 67 1.5295116864413272e-07
 68 1.0155327665580113e-07
 69 -2.0755122921879027e-08
 70 7.3464112548818757e-08
 71 -3.7882458224906882e-07
 72 4.6445867314527337e-07
 73 2.5478521716775252e-06
 74 3.4215911719013767e-06
 75 7.8743573311788581e-07
 76 0.0005790397024195231
 77 -0.0074483693351842847
 78 0.0017693334078087747
 79 -0.0042207408957894198
 80 -0.0032958539133182332
 81 -4.649456583300599e-09
 82 9.1016615192991964e-08
 83 4.5019277332648294e-08
 84 1.1320780956323079e-08
 85 1.4971079022173017e-08
 86 -2.1994210264018427e-07
 87 1.3888057915913945e-06
 88 1.4575902269996739e-06
 89 -8.1310741362806539e-07
 90 1.9921116560914309e-07
 91 -2.531493926975213e-10
 92 -1.0594429345415824e-08
 93 -2.6966147920542449e-08
 94 2.1165965128482937e-09
 95 -4.2463893384744577e-08
 96 -2.6126010606597168e-08
 97 4.2220884675690485e-07
 98 2.0243347471545834e-07
 99 -1.835566562732009e-07
 100 -1.058937775878571e-07
 101 -4.7927316141439884e-06
 102 1.1344507275729984e-05
 103 3.6032148895478747e-05
 104 0.00011234337152988274
 105 1.7823954337541344e-05
 106 4.309773519299549e-06
 107 1.8292885612688707e-05
 108 6.04545635225944e-05
 109 1.9472488865861596e-05
 110 1.5855255941585023e-05
 111 -4.8103345217811716e-06
 112 3.3919735093138593e-05
 113 -2.6910215971343966e-05
 114 -7.7078233216696205e-06
 115 5.7780814031316571e-06
 116 7.826017110170212e-08
 117 2.2779734611396696e-06
 118 -2.7502942277500516e-06
 119 -3.739325255026378e-06
 120 -3.5191513612714915e-07
 121 1.175520866299971e-07
 122 1.7203585918029076e-07
 123 -7.2183818221077394e-08
 124 1.3832264404594724e-05
 125 -1.922707276524549e-05
 126 -1.1360131438101344e-05
 127 -6.2784617209384283e-05
 128 1.6318443194594954e-06
 129 2.2947212167776335e-06
 130 1.9098081726864604e-06
 131 -4.7959489848462173e-09
 132 5.2918485875173049e-07
 133 2.998986755522532e-09
 134 -9.4254236166784499e-10
 135 -4.3188746789641645e-09
 136 -5.0770945829346976e-06
 137 -0.00021136716888104222
 138 -2.1764683732399556e-05
 139 -2.0007128674806938e-05
 140 -3.9557582717846633e-05
 141 -3.3097144171561175e-07
 142 5.1561707879392264e-06
 143 -5.7956326896219004e-06
 144 1.8887063691391797e-06
 145 1.1482849850545439e-07
Sym= A
Ene= -15.420736266024502
Spin= Alpha
Occup= 2
 1 -1.1454570670855614e-08
 2 3.1052860020668989e-08
 3 3.6067097158383892e-09
 4 -4.4846679161713576e-08
 5 5.8502960487907215e-08
 6 -3.0064643934720599e-07
 7 -8.1327754369554933e-07
 8 4.6502335557231932e-07
 9 -1.0481236221991971e-07
 10 1.8961730023623241e-08
 11 -0.99326632778056156
 12 -0.03272708013044863
 13 -0.00078661172850267192
 14 0.00020673309837082853
 15 6.666889721383798e-05
 16 2.6249189279359517e-07
 17 1.4109635900464149e-08
 18 3.7842854093703125e-11
 19 -4.8124990033047873e-09
 20 8.1048473036009419e-09
 21 -8.4611544460036663e-07
 22 8.9925451494836313e-06
 23 -3.5234593857415741e-06
 24 -3.0229969923277372e-06
 25 -2.7199225470721123e-06
 26 -8.4171469303662503e-07
 27 1.0016849646397086e-05
 28 -4.518848868557947e-06
 29 6.4891606571156644e-06
 30 -1.2223266469497459e-06
 31 -2.97294599342292e-06
 32 1.1331887054694451e-05
 33 -3.3251629266022303e-05
 34 -1.6670441886952557e-05
 35 1.2357513366114258e-09
 36 -3.4769607437710258e-09
 37 -1.1651388098563676e-08
 38 -7.4850267018672419e-08
 39 -5.5503596227623384e-08
 40 3.4908558020398926e-08
 41 -2.8243673287837687e-08
 42 1.3077588592045351e-07
 43 -1.921937289497422e-07
 44 8.28857647023923e-08
 45 -6.8067544740030415e-09
 46 -4.1320155840155255e-06
 47 -0.00041220783280387203
 48 0.0002193441097985596
 49 -8.875875581675454e-05
 50 9.2316464303397404e-07
 51 -5.7713991455835533e-06
 52 5.2152826218507217e-05
 53 -5.565195889814238e-05
 54 2.1875649067171056e-05
 55 -1.0745711866234039e-06
 56 -4.571527628810841e-06
 57 -0.0003931483145751917
 58 0.00019750097021226296
 59 -4.5433890230348087e-05
 60 -3.788651088058681e-06
 61 1.2693778375543614e-08
 62 -9.3206410475690309e-07
 63 6.3959851915683113e-07
 64 -2.3628671147590013e-07
 65 -3.0559858962413226e-08
 66 -0.00046954569819031305
 67 0.0059651405351678084
 68 -0.0027197314203330977
 69 -0.0029432207389157175
 70 0.00066569423447226581
 71 -4.4756096637233836e-08
 72 3.9453309808083483e-07
 73 -2.8821978659067984e-07
 74 -6.0469473463448153e-08
 75 3.0113386101976941e-08
 76 -3.4706235195885514e-09
 77 -1.7820436295646785e-08
 78 -1.0428824903143002e-08
 79 9.1039971855288515e-09
 80 -5.6400994958505833e-08
 81 -0.00048884138271872656
 82 0.006034557602419016
 83 -0.0017988428181169081
 84 0.0035754445191136515
 85 -0.00043321510466308775
 86 -2.5726372780610817e-06
 87 -6.1015559840929819e-06
 88 -2.2802682643424345e-05
 89 -1.6066252497834834e-05
 90 3.9411999749605419e-06
 91 1.8431372931959684e-05
 92 -0.0001596250049869156
 93 0.00033287959112384904
 94 8.9583380941206476e-05
 95 -3.6048216640727911e-05
 96 -2.386293445497026e-06
 97 -3.211135455337624e-05
 98 3.7498485902633084e-05
 99 -2.8814876422543536e-05
 100 2.4651611954439267e-06
 101 6.393991787399133e-11
 102 6.258921889677781e-10
 103 1.0116628836090637e-09
 104 -6.916224577188883e-10
 105 1.8799074032806152e-09
 106 -2.143397224088148e-10
 107 5.3677777438195918e-10
 108 -6.548129401817685e-10
 109 2.5190808592854864e-09
 110 -2.2821488554187569e-09
 111 9.2032213164191584e-10
 112 -3.4968505377069167e-09
 113 1.7368385201358923e-09
 114 -1.5936532460660051e-09
 115 4.2516738974572899e-09
 116 1.3649874928221734e-09
 117 -4.5934584582718135e-09
 118 3.7525862565270364e-10
 119 3.5441674354075871e-09
 120 -5.402935595430975e-09
 121 -7.4262444324988683e-07
 122 1.7639428009992294e-05
 123 -2.1745592909011821e-07
 124 4.0010550832640675e-08
 125 3.4767881454229434e-08
 126 3.7190479896418708e-08
 127 9.9903998799444875e-08
 128 -5.8572950957544375e-07
 129 4.647921095694785e-08
 130 3.1757062034408836e-09
 131 -0.00024786280176861673
 132 1.291343319407139e-05
 133 0.0064252829271980666
 134 8.2739931086274902e-05
 135 1.6689056890165378e-05
 136 2.3627638001013709e-10
 137 3.0615191255956368e-09
 138 5.8704655665437147e-10
 139 3.0476005579386888e-09
 140 1.431241315747466e-10
 141 1.5672459042087674e-10
 142 8.2449186592887797e-10
 143 -2.9073372028252196e-09
 144 -1.1311043936616253e-09
 145 4.8158522185790208e-09
Sym= A
Ene= -15.393419351646925
Spin= Alpha
Occup= 2
 1 -3.8344492526706164e-05
 2 0.00026527431505315611
 3 0.00027190127781319146
 4 1.2883635818903091e-06
 5 -3.9058063602341307e-05
 6 2.6207500437210526e-06
 7 6.6341039541401343e-06
 8 2.497115590599802e-06
 9 2.1600494189295344e-06
 10 5.1121125436077074e-07
 11 2.6493235138657428e-07
 12 1.8131781865298333e-09
 13 2.5551394224240452e-11
 14 1.8382454756753412e-09
 15 2.251724118895921e-08
 16 0.99329284506251492
 17 0.031763320679695242
 18 0.00023838690779896208
 19 -9.0670020166898978e-05
 20 -8.9955281251327161e-05
 21 -1.4411611167950126e-07
 22 4.9541725079830976e-07
 23 7.6836989002843888e-07
 24 -1.0632403801287397e-07
 25 -5.1421963802498543e-07
 26 -7.0146366847201959e-07
 27 5.9750229892462399e-06
 28 5.8660055105271291e-06
 29 2.3818095242701167e-06
 30 5.2338979871177202e-06
 31 -2.03740528651967e-08
 32 1.5755792658219932e-07
 33 3.4793242387130662e-08
 34 1.4171996743340692e-07
 35 6.4048925474946818e-08
 36 -8.2954999995404139e-06
 37 0.00025144191675054888
 38 0.00019116482945798248
 39 2.2443672153036475e-05
 40 -5.2395757804258224e-05
 41 -8.2000419306311011e-06
 42 4.6618421985589721e-05
 43 3.3338500156806445e-05
 44 1.6248041310096631e-05
 45 5.0385227889972629e-06
 46 -4.3324751751023545e-09
 47 -6.7147196072999616e-09
 48 4.1720480144764746e-08
 49 5.8981353569700698e-09
 50 -6.308077310075689e-08
 51 -3.4088695829597019e-08
 52 2.3707739778983473e-07
 53 1.1162513553684463e-07
 54 -4.3400071007358337e-07
 55 -7.2153220129855706e-09
 56 -1.1908802986846099e-08
 57 3.0927154198615838e-08
 58 8.1988782752078394e-08
 59 -6.8359946072713835e-08
 60 -4.0281546652736199e-08
 61 6.1726030852234279e-06
 62 -5.5032985285090906e-05
 63 -2.6732336609958329e-05
 64 -2.6476958478047451e-05
 65 -3.4336092300717658e-05
 66 -2.9155344437934797e-09
 67 3.7537808430593732e-08
 68 2.9571791099523603e-08
 69 3.4192813437548172e-09
 70 6.8701165161776984e-08
 71 1.8977127991660193e-08
 72 1.6447425161504185e-07
 73 -1.7351553235408199e-08
 74 -7.5738345515262227e-07
 75 2.9916923982133623e-07
 76 0.00045727146524011833
 77 -0.0056924854619696949
 78 -0.0037243099303824719
 79 0.00057769092467134227
 80 0.00097379429798735402
 81 1.1678858706819502e-12
 82 2.2084877774797001e-08
 83 8.6393169939812508e-09
 84 -5.860520710109515e-09
 85 -3.2193081316560729e-08
 86 -2.5195736500566996e-08
 87 3.6423895779724796e-07
 88 1.2965022319109509e-07
 89 9.4593485719263154e-08
 90 1.1712112913546201e-07
 91 -7.3178368659904363e-10
 92 1.1287206928724651e-08
 93 3.530011274268139e-09
 94 -4.1544598279937653e-09
 95 6.3769918367419339e-09
 96 -8.2644084869423497e-10
 97 1.9063486748790494e-09
 98 -5.6584486813176346e-09
 99 -2.3769697906211155e-08
 100 -1.105505336451717e-07
 101 0.00050208281387477145
 102 -0.0053383771493985778
 103 0.002784933653560826
 104 0.002185807604460631
 105 0.0012129767063061669
 106 0.00050616158912312299
 107 -0.0053409386156973281
 108 0.0010570972109408725
 109 -0.0028258711046072224
 110 -0.00224777937300732
 111 1.0723549182790127e-05
 112 0.00020821216204963626
 113 6.63011835790199e-06
 114 3.645038512462836e-05
 115 -2.1708078807733169e-05
 116 1.0532739550366537e-05
 117 0.00020922331272629454
 118 2.5059514268071559e-06
 119 -3.6401839218966183e-05
 120 1.942281553518634e-05
 121 -4.3494765055727882e-07
 122 3.4577338441063708e-08
 123 -2.9742765588651816e-09
 124 -4.0022844797932927e-05
 125 -3.8089536182860143e-05
 126 -4.5170713551023418e-06
 127 1.9176790711250447e-05
 128 -2.8548812772028392e-07
 129 -9.6697527279787189e-07
 130 9.219828513970258e-07
 131 -1.3174569803405682e-09
 132 -8.3411414134945227e-07
 133 -1.5132243994477639e-09
 134 -7.7146712273708152e-10
 135 1.7786019923255573e-08
 136 0.00026991972129374346
 137 0.00027451924151117318
 138 0.00028687324691081692
 139 0.00023605868049462322
 140 -6.0602667729556482e-05
 141 -5.2335739343874954e-05
 142 -0.00012802303958834565
 143 -6.4683009404259656e-05
 144 -4.7877405820499637e-05
 145 -0.00012815403731789458
Sym= A
Ene= -15.247274271481269
Spin= Alpha
Occup= 2
 1 5.6288375574784273e-07
 2 -5.8139410691830008e-06
 3 -2.4319759130845542e-06
 4 6.2802228377999508e-06
 5 -1.7316543136534002e-06
 6 -0.99337276180535616
 7 -0.030923424114542197
 8 -0.00055374491225703727
 9 -0.0020039286171781596
 10 0.0022541407719162804
 11 4.8511369402186747e-07
 12 -1.4939140927205219e-06
 13 -9.463213283738828e-07
 14 5.3020418309792659e-07
 15 3.9084466619560835e-07
 16 3.9693036494981725e-06
 17 -1.3451472638891843e-05
 18 6.4948882285357301e-06
 19 -3.9088209340559817e-07
 20 -2.637429502189325e-06
 21 -0.00048256693520552996
 22 0.0049705208947381611
 23 0.0029661034567655445
 24 -0.0020384965906911894
 25 -0.00038739769244990475
 26 8.9921125453686524e-06
 27 -0.00025194305029570285
 28 -0.00013746078116294089
 29 0.0001169752700152789
 30 -2.1313738679114638e-05
 31 9.1446221135615555e-06
 32 -0.00024818970725090851
 33 -0.00014272943379405639
 34 3.9985299242689817e-06
 35 1.0048493796483742e-05
 36 1.164324516151653e-06
 37 -0.00023016803259885981
 38 6.5452284420511146e-05
 39 8.2619834739165379e-05
 40 -6.6826166284843574e-05
 41 -0.00049907358962175848
 42 0.0053202583666097352
 43 -0.0031107586174989907
 44 -0.0020048510382543686
 45 -0.00076981021291328542
 46 -7.6561667885669402e-06
 47 4.8024142576626564e-05
 48 6.9010076505591553e-05
 49 1.9726441309606921e-05
 50 1.5611205729709337e-05
 51 -3.7201950701654836e-06
 52 8.7928936865869171e-06
 53 -2.957646480996103e-06
 54 -3.1745772551721287e-05
 55 2.5808275627748914e-05
 56 -3.5896814844804827e-06
 57 -5.0919487944834588e-08
 58 3.1760550959045681e-05
 59 -1.3652259245215345e-05
 60 1.1782991940412041e-05
 61 -4.9475705007981405e-06
 62 7.3915235953425933e-05
 63 -3.3375775776591795e-05
 64 -7.3369317368182632e-05
 65 -1.3194211320787205e-05
 66 -7.4660094870863118e-07
 67 1.3546578661780418e-05
 68 7.323648071150506e-06
 69 -3.9675876873521174e-06
 70 -2.9806497372921643e-06
 71 -0.00049988901806513511
 72 0.0053630341505146511
 73 -0.00027817239139546539
 74 0.0019954728472015939
 75 0.0032060666759599517
 76 -1.3043828144675471e-05
 77 0.00010102630704029144
 78 -1.3821639179153482e-05
 79 -7.1801303256438881e-05
 80 3.1864093874818216e-05
 81 -7.3421056094548843e-07
 82 1.6907138608226082e-05
 83 9.5816402580803707e-06
 84 2.3321964074323481e-06
 85 -5.8490252216139212e-06
 86 -6.3155826288587208e-07
 87 1.0924911038374205e-05
 88 3.5569287337392484e-07
 89 -7.4909578497487575e-06
 90 -2.4606354102176012e-06
 91 -4.7694923445261498e-09
 92 -1.8141616934108605e-07
 93 -4.212528204844624e-07
 94 1.2073997281878865e-07
 95 3.0343247865216111e-07
 96 9.5802995646099443e-09
 97 -8.6045717661970073e-08
 98 -3.6563830145725813e-09
 99 4.1408978550232186e-07
 100 1.5757835441761067e-07
 101 -9.6552232595248229e-09
 102 2.9207969892940994e-07
 103 -7.3711722390085428e-07
 104 3.2591101721545704e-07
 105 -4.1542864198238368e-07
 106 -1.1053416637743866e-06
 107 4.9347195957098953e-06
 108 -6.0660734847577093e-06
 109 -1.6632267440860802e-06
 110 6.5131813925145285e-06
 111 8.9427535557217149e-08
 112 -7.4296261734424482e-07
 113 3.3978976042929586e-07
 114 4.3776793640367541e-08
 115 -4.0543900917367787e-07
 116 -1.13703682913081e-07
 117 8.3113650910236727e-07
 118 7.7763664568698747e-07
 119 -7.1926226761277208e-07
 120 1.4717772639468764e-06
 121 -0.00017209500166369445
 122 6.9553574666530362e-05
 123 -1.689380221461187e-05
 124 -4.0217602614949082e-05
 125 -0.00023315702148474609
 126 -0.00022450096845731373
 127 1.7561158530106519e-05
 128 -0.00016511584288029303
 129 -0.00025540719450178548
 130 -0.00022752596834351745
 131 -8.8087582699527937e-08
 132 -3.6323670940840672e-07
 133 5.6137976689728244e-08
 134 -7.2802101177559217e-08
 135 3.6729262004816529e-08
 136 1.1448360681023469e-08
 137 5.8751874828129564e-07
 138 6.1601096493704192e-07
 139 4.1081155290120444e-06
 140 1.2671336584840463e-06
 141 3.872310610661999e-07
 142 4.4506760907034868e-08
 143 2.8001674433451639e-06
 144 5.8919499696228713e-08
 145 -1.0959307277634314e-07
Sym= A
Ene= -11.176514824084284
Spin= Alpha
Occup= 2
 1 9.5443191918111239e-06
 2 -8.8066755875744544e-05
 3 -1.1675557426358789e-05
 4 3.0149184336839184e-05
 5 1.9547600722295402e-05
 6 1.753704805541772e-06
 7 -7.255733159804796e-06
 8 -5.0484933730976151e-06
 9 -5.0731169128616569e-07
 10 8.0866896938390596e-06
 11 1.066052274957275e-09
 12 -6.3892407615440805e-09
 13 -5.0224915128681599e-09
 14 -5.4059254043048067e-09
 15 -1.5576288149174843e-08
 16 0.00047464373619985045
 17 -0.0051717469005451416
 18 -0.00079313366852544834
 19 0.0022375958832155977
 20 0.0017124275911536405
 21 -1.6955138982749877e-06
 22 -2.5516042533889858e-06
 23 -2.4270585015915569e-06
 24 -2.6140975267741583e-07
 25 1.1163446311201156e-06
 26 -1.0817196513936251e-06
 27 7.5099634589337627e-06
 28 3.2018680939619893e-06
 29 2.2197311072376889e-06
 30 1.8693957458100001e-07
 31 -1.6330925910720625e-08
 32 7.6562511716114709e-08
 33 -2.3930320780226262e-07
 34 -1.323822433328356e-07
 35 -3.9050002568631352e-07
 36 -0.0001342773949813805
 37 6.9719397706431946e-06
 38 -0.0001825546375385432
 39 -2.3246597055383633e-05
 40 -3.2038849441022418e-05
 41 2.0955544620952071e-05
 42 -1.9838591624879745e-05
 43 1.2005493722266976e-05
 44 3.1107898004698338e-05
 45 -6.721985090123861e-05
 46 -3.1189736224433111e-08
 47 -6.807422352411902e-08
 48 -1.1762657813843256e-08
 49 3.5226601509869619e-10
 50 -8.3479737903450003e-09
 51 -4.7400135433730914e-07
 52 -8.9896011358405191e-07
 53 -7.7247729308283444e-07
 54 -2.4199033080636689e-07
 55 -1.442211268904164e-08
 56 2.9097792676354878e-09
 57 -1.2426125531423536e-07
 58 -4.3446667901595648e-08
 59 -1.0435897044128405e-07
 60 -2.8102015719574256e-09
 61 -3.153383220256398e-06
 62 -4.1276743499445213e-05
 63 -9.8070324238645181e-06
 64 2.5439970024460409e-05
 65 -2.3739223731946643e-05
 66 3.1468225361084663e-08
 67 3.4368046876144545e-08
 68 2.5570479635248493e-08
 69 8.4500353799245508e-09
 70 9.3376312274580416e-08
 71 -7.7465206957233904e-06
 72 -3.8266454933478898e-05
 73 -7.0680631260158289e-06
 74 2.2383950919424233e-05
 75 5.9365370598455452e-06
 76 -0.00012005868038011112
 77 -5.7078612343538124e-05
 78 -0.00013194317894111996
 79 0.00010765619286172274
 80 0.0001198784984457033
 81 -4.0736394957297183e-08
 82 2.5603501397636004e-09
 83 5.8556517329265987e-09
 84 -4.171889618553449e-09
 85 -1.4921855733587148e-08
 86 -5.0991669520878571e-08
 87 2.1929249889095024e-07
 88 -5.9080691802221227e-08
 89 -3.5000358605652318e-08
 90 -7.6994682488305991e-08
 91 3.413034940093311e-08
 92 9.9669019854271003e-09
 93 5.0314714439959362e-09
 94 1.6127606817053011e-08
 95 7.7104862745397057e-08
 96 4.7130119457245808e-09
 97 -5.3458991628953201e-08
 98 -2.0489448349968976e-08
 99 2.3154139127148382e-08
 100 -1.924601032380877e-08
 101 -0.0019348083117634769
 102 -0.00018119460866965924
 103 3.2521224237258416e-05
 104 0.00025093489131664741
 105 0.00013602964948896906
 106 0.99202918439290155
 107 0.036884797179127661
 108 0.00025764296974894996
 109 -0.00026287524494942975
 110 -0.00013090751147118874
 111 2.768653413537415e-05
 112 2.6282708119912845e-05
 113 -1.101385800985257e-07
 114 8.9860120563728429e-08
 115 -4.264041966926036e-05
 116 -0.0023264020129869882
 117 -0.0059940014796836579
 118 -4.0184930983967537e-05
 119 0.00093312039572194388
 120 -0.0035869349092731966
 121 2.467771167455402e-07
 122 -8.1396388574861106e-08
 123 -1.0365080639029357e-06
 124 -0.00029169885686418118
 125 0.00025174480851876255
 126 1.3367656592450199e-05
 127 -3.0798853309200352e-06
 128 7.5567724542907022e-06
 129 8.3944443280763205e-05
 130 2.385181904340564e-05
 131 2.3395004087669777e-09
 132 -1.9451524968786153e-07
 133 3.1889087203001197e-09
 134 -1.1745153715725721e-10
 135 -8.2125991461034246e-10
 136 -0.00019445230109741248
 137 -7.1383855380560088e-05
 138 -0.0069829393500839285
 139 -0.0069492757078401732
 140 1.4820468487350476e-06
 141 7.5866537053052483e-05
 142 -3.5444366831542461e-06
 143 6.722543130093806e-05
 144 6.0777149089739114e-05
 145 9.4072426099937943e-05
Sym= A
Ene= -11.144757926847459
Spin= Alpha
Occup= 2
 1 5.8656800223093061e-06
 2 -8.8595190526153869e-05
 3 3.3277905851120995e-06
 4 8.1189223095970013e-06
 5 2.8445753811341797e-05
 6 7.0190014919159212e-08
 7 -7.952103594986264e-07
 8 -5.2111197349604483e-07
 9 4.1610171985341958e-08
 10 -6.0957879183232093e-07
 11 -1.095490491230535e-09
 12 3.4032203403846936e-09
 13 1.8934115148515411e-09
 14 -1.5544811209175251e-10
 15 -6.8130109998282564e-09
 16 -0.00047897184766127534
 17 0.0052786746436263498
 18 0.0021802368627838941
 19 0.0017731537335600462
 20 0.00094346338266570182
 21 1.4060806681829297e-07
 22 -8.3914539045317896e-09
 23 2.5517016223969093e-07
 24 2.5824036214112878e-08
 25 3.907410276591142e-08
 26 7.1609997838578638e-08