[Molden Format]
[Title]
generated by GANSU
[Atoms] (Angs)
C 1 6 0 0 0
H 2 1 0.625 -0.625 -0.625
H 3 1 0.625 0.625 0.625
H 4 1 -0.625 0.625 -0.625
H 5 1 -0.625 -0.625 0.625
[GTO]
1 0
 s 3 1.00
    13.0451 0.535328
    3.53051 0.444635
    71.6168 0.154329
 s 3 1.00
    2.94125 -0.0999672
    0.683483 0.399513
    0.22229 0.700115
 p 3 1.00
    0.22229 0.391957
    0.683483 0.607684
    2.94125 0.155916

2 0
 s 3 1.00
    0.623914 0.535328
    0.168855 0.444635
    3.42525 0.154329

3 0
 s 3 1.00
    3.42525 0.154329
    0.623914 0.535328
    0.168855 0.444635

4 0
 s 3 1.00
    3.42525 0.154329
    0.623914 0.535328
    0.168855 0.444635

5 0
 s 3 1.00
    3.42525 0.154329
    0.623914 0.535328
    0.168855 0.444635

[MO]
Sym= A
Ene= -11.0296
Spin= Alpha
Occup= 2
 1 -0.99192323774354418
 2 -0.038378177617193192
 3 -9.0373094579966931e-17
 4 -1.2820231464463944e-17
 5 1.7779834557224384e-17
 6 0.0070129087341830295
 7 0.0070129087341830407
 8 0.0070129087341829462
 9 0.0070129087341828629
Sym= A
Ene= -0.91233498644975464
Spin= Alpha
Occup= 2
 1 -0.22145097513247464
 2 0.62746360864409134
 3 1.4076220725445069e-16
 4 -2.9261022698239019e-16
 5 -1.6347788216912963e-16
 6 0.18054944760707151
 7 0.1805494476070707
 8 0.18054944760707137
 9 0.18054944760707139
Sym= A
Ene= -0.5206704965158736
Spin= Alpha
Occup= 2
 1 -1.9228669823119068e-17
 2 1.1121205810179019e-16
 3 0.48266717356085104
 4 0.067071616663267358
 5 -0.022942521814254345
 6 0.27037248962592997
 7 0.32478643367527416
 8 -0.24208292006591425
 9 -0.35307600323528987
Sym= A
Ene= -0.5206704965158736
Spin= Alpha
Occup= 2
 1 1.3449990662403663e-16
 2 -9.4053536052211029e-16
 3 -0.069649270301892052
 4 0.41933898346823095
 5 -0.23936657576296511
 6 -0.15389959919933355
 7 0.068017676847381331
 8 0.44905361279090084
 9 -0.36317169043894654
Sym= A
Ene= -0.52067049651587238
Spin= Alpha
Occup= 2
 1 -6.4579878481750897e-17
 2 9.3768038681007015e-16
 3 0.013188639635521594
 4 -0.240101596588296
 5 -0.42446418530019397
 6 0.41785687309228825
 7 -0.40159445253574882
 8 0.10553411212733703
 9 -0.12179653268387923
Sym= A
Ene= 0.71962707963725769
Spin= Alpha
Occup= 0
 1 -2.284090819162482e-15
 2 1.4323333207662422e-14
 3 -0.24128774440657741
 4 0.88828948282291642
 5 0.20867495134867942
 6 0.87220850509678083
 7 -0.55768897549567875
 8 -0.60019988029432714
 9 0.28568035069320175
Sym= A
Ene= 0.71962707963725936
Spin= Alpha
Occup= 0
 1 -1.3625462993615127e-16
 2 -9.0810065074138969e-18
 3 -0.84626704223037619
 4 -0.29856877362257395
 5 0.29242434383469967
 6 0.54755157482725458
 7 0.55556086336904043
 8 -0.16637528552585096
 9 -0.93673715267044344
Sym= A
Ene= 0.71962707963725947
Spin= Alpha
Occup= 0
 1 4.8463758302251208e-15
 2 -3.1218851215298452e-14
 3 0.34122651398862469
 4 -0.11234633211057476
 5 0.87279206230777695
 6 0.27322695358181942
 7 -0.71801706478731153
 8 0.8644609532439661
 9 -0.41967084203842314
Sym= A
Ene= 0.76176692235325127
Spin= Alpha
Occup= 0
 1 -0.25236088706643839
 2 1.6340760629510236
 3 8.5867527379370235e-15
 4 -9.4907232295953853e-15
 5 1.5057553990574996e-14
 6 -0.66805068474899565
 7 -0.66805068474900153
 8 -0.668050684748971
 9 -0.66805068474900342
