[Molden Format]
[Title]
generated by GANSU
[Atoms] (Angs)
I 1 53 1.0559 0 0
C 2 6 -1.0559 0 0
H 3 1 -1.4497 -1.0209 0
H 4 1 -1.4498 0.5104 0.8842
H 5 1 -1.4497 0.5105 -0.8841
[GTO]
1 0
 s 3 1.00
    1099.32 0.535328
    297.518 0.444635
    6035.18 0.154329
 s 3 1.00
    533.737 -0.0999672
    124.029 0.399513
    40.3381 0.700115
 p 3 1.00
    533.737 0.155916
    124.029 0.607684
    40.3381 0.391957
 s 3 1.00
    69.5427 -0.227764
    21.2127 0.217544
    8.18454 0.916677
 p 3 1.00
    69.5427 0.00495151
    21.2127 0.577766
    8.18454 0.484646
 s 3 1.00
    7.29599 -0.33061
    1.25062 1.11558
    2.84102 0.057611
 p 3 1.00
    7.29599 -0.128393
    2.84102 0.585205
    1.25062 0.543944
 s 3 1.00
    0.1879 1.3755
    0.425386 -0.197257
    0.790036 -0.384264
 p 3 1.00
    0.1879 0.666283
    0.425386 0.629032
    0.790036 -0.348169
 d 3 1.00
    69.5427 0.219768
    21.2127 0.655547
    8.18454 0.286573
 d 3 1.00
    7.29599 0.125066
    1.25062 0.305247
    2.84102 0.668679

2 0
 s 3 1.00
    71.6168 0.154329
    13.0451 0.535328
    3.53051 0.444635
 s 3 1.00
    0.22229 0.700115
    0.683483 0.399513
    2.94125 -0.0999672
 p 3 1.00
    0.683483 0.607684
    0.22229 0.391957
    2.94125 0.155916

3 0
 s 3 1.00
    0.168855 0.444635
    0.623914 0.535328
    3.42525 0.154329

4 0
 s 3 1.00
    3.42525 0.154329
    0.623914 0.535328
    0.168855 0.444635

5 0
 s 3 1.00
    0.623914 0.535328
    3.42525 0.154329
    0.168855 0.444635

[MO]
Sym= A
Ene= -1165.07
Spin= Alpha
Occup= 2
 1 -0.99719176745587568
 2 -0.0096528548958911831
 3 9.2224152561121011e-09
 4 2.0760331371512398e-12
 5 4.5412717713772134e-11
 6 0.090078470984747208
 7 1.0952549826783648e-06
 8 -8.3749560102441008e-13
 9 -2.4717862954531776e-11
 10 -0.038827314814144039
 11 -5.6278668031551873e-06
 12 -1.053563969073525e-12
 13 7.596119646115021e-12
 14 -0.00061878721959350525
 15 4.6518384648654464e-05
 16 6.1432706292345212e-12
 17 1.1739510218738083e-11
 18 -0.040460496095611573
 19 -0.04046143500147871
 20 -0.040461435001963753
 21 -4.473715317375674e-13
 22 -1.22549334124918e-11
 23 -8.0608988946261998e-13
 24 0.018002966944983687
 25 0.018006326909002984
 26 0.018006326910023424
 27 1.2118461824368626e-12
 28 6.9395998767545454e-12
 29 1.5294190640772965e-12
 30 -9.2994287542167144e-06
 31 7.4989507428930888e-05
 32 5.8148498128270612e-05
 33 5.7120731294737423e-10
 34 7.3071157210054153e-10
 35 6.1379712175805611e-06
 36 6.1356817984259354e-06
 37 6.1379445864109709e-06
Sym= A
Ene= -178.48481003310482
Spin= Alpha
Occup= 2
 1 -0.4241891529895378
 2 1.0367269800491361
 3 -8.2978922103927141e-05
 4 -8.4578364971372228e-10
 5 -1.5403609445168318e-08
 6 -1.7575299780021996
 7 -3.9344722934666125e-05
 8 -5.9703352785290345e-11
 9 -9.1234074846456316e-10
 10 0.52201792784399736
 11 0.00015010348987333296
 12 4.7895959529161827e-11
 13 2.569558453059416e-10
 14 0.014191504360560731
 15 -0.0012095491279070943
 16 -1.6534876580425683e-10
 17 -4.3416382809749672e-10
 18 0.8346354672911166
 19 0.83465194749292781
 20 0.83465194751545602
 21 2.7010557880349321e-11
 22 1.0468263662114652e-09
 23 3.7560343230114656e-11
 24 -0.25379293832060285
 25 -0.25387996896796761
 26 -0.25387996899043547
 27 -3.0098171236062654e-11
 28 -2.2783570877685584e-10
 29 -3.2984158124119784e-11
 30 0.00025991756539001565
 31 -0.0019302672739841481
 32 -0.0015457716251005278
 33 -1.1751288604323309e-08
 34 -1.4719589584318689e-08
 35 -0.00013604416223701767
 36 -0.00013599797118255374
 37 -0.00013604358306977521
Sym= A
Ene= -168.62584481503637
Spin= Alpha
Occup= 2
 1 0.00016684511117893972
 2 -0.00041700987973289637
 3 -0.23308336725935239
 4 -3.5086714261230479e-07
 5 -1.8013523268319085e-05
 6 0.0008369071015133276
 7 0.0024634775031180463
 8 3.7047717055882994e-09
 9 1.9005615005662689e-07
 10 -0.0016182572800926187
 11 -0.0030061053321153728
 12 -4.497585473899096e-09
 13 -2.3072497231262975e-07
 14 -0.00014633618826724116
 15 0.0013097931311386504
 16 1.7259882808286081e-09
 17 8.7933700773276265e-08
 18 -0.00037624122608236488
 19 -0.00040939761759262373
 20 -0.00040939761698459616
 21 1.850568306420793e-10
 22 4.1449913491391935e-09
 23 1.016779818513745e-12
 24 0.00072996751710599581
 25 0.00074968682687248721
 26 0.00074968682667340622
 27 -3.5634750610135483e-11
 28 -8.8069858079566746e-10
 29 -1.0368882538134705e-12
 30 -4.0315364913897577e-05
 31 0.00030058416448177716
 32 0.0002322214086277526
 33 4.2172681722293414e-10
 34 -4.855233950634132e-09
 35 8.4943741246253484e-06
 36 8.4926551398641125e-06
 37 8.4942770433638548e-06
Sym= A
Ene= -168.6250207484274
Spin= Alpha
Occup= 2
 1 1.3623402384537569e-08
 2 -3.3106046506207007e-08
 3 1.4841525461185408e-05
 4 -0.13586266949581846
 5 -0.18939175047456666
 6 4.6924009482955671e-08
 7 -1.5708131640746786e-07
 8 0.0014354952498771025
 9 0.0020010718121515891
 10 6.9476629604580683e-08
 11 1.914460356528715e-07
 12 -0.0017405708200175676
 13 -0.0024263453362234747
 14 8.4385752807135848e-09
 15 -8.3316155635889044e-08
 16 0.000663003088200602
 17 0.00092422235321559516
 18 -2.4679328965869368e-08
 19 -2.1549638493134216e-08
 20 -1.9318132642535269e-08
 21 1.0220245328292385e-05
 22 1.4246961742809855e-05
 23 5.2588683247929064e-10
 24 -3.0054499810101982e-08
 25 -3.0640029019348656e-08
 26 -3.2822971741565099e-08
 27 -2.2286101300672695e-06
 28 -3.1066703416819671e-06
 29 -1.5056561880578605e-09
 30 2.9027744928301441e-09
 31 -2.177154816254451e-08
 32 -1.3872614684771225e-08
 33 -4.0956694337736652e-05
 34 -5.7093710695599034e-05
 35 -6.9552178344958485e-07
 36 1.1914181187813828e-06
 37 -4.9191980617599096e-07
Sym= A
Ene= -168.62502074473994
Spin= Alpha
Occup= 2
 1 8.1363690224536202e-09
 2 -1.9734547933312268e-08
 3 1.0214951372670496e-05
 4 0.18939175105990844
 5 -0.13586266911549086
 6 2.7088709129906805e-08
 7 -1.0811761755423711e-07
 8 -0.0020010718317388415
 9 0.0014354952563135105
 10 5.0024543649357371e-08
 11 1.3177070646847684e-07
 12 0.0024263453459693806
 13 -0.0017405708174954369
 14 5.8791077340236125e-09
 15 -5.736008738046207e-08
 16 -0.0009242223318875083
 17 0.00066300307608361793
 18 -1.4460768870250412e-08
 19 -1.4202040798317834e-08
 20 -9.0916000957854829e-09
 21 -1.4246966147257902e-05
 22 1.022024948060612e-05
 23 -3.0281898937390505e-09
 24 -2.1751766462725017e-08
 25 -2.3587815577622802e-08
 26 -2.2170743024038399e-08
 27 3.1066634884271612e-06
 28 -2.2286068027802139e-06
 29 -4.0715893719555374e-10
 30 1.806888882399795e-09
 31 -1.3489142382546022e-08
 32 -1.0008364606314817e-08
 33 5.7091952053303123e-05
 34 -4.0955896271268543e-05
 35 9.6851163934536593e-07
 36 1.1774814986009794e-07
 37 -1.086591077461684e-06
Sym= A
Ene= -36.209009027186475
Spin= Alpha
Occup= 2
 1 0.22248143467627579
 2 -0.71274430624627394
 3 0.00033934015411098579
 4 3.4361434872729651e-09
 5 5.5085757478768538e-08
 6 2.6357433061608111
 7 -0.0010568602854660561
 8 -1.0903542720534318e-08
 9 -1.748340417093928e-07
 10 -0.69317932250350944
 11 -0.00051133847484025638
 12 -1.7073577769329334e-09
 13 -2.5651946027933823e-08
 14 -0.029441938292427517
 15 0.0026926888003173713
 16 8.8321593867319597e-10
 17 7.6553874776668307e-09
 18 -0.68321713554656716
 19 -0.68365269483618496
 20 -0.68365269433851161
 21 6.7900187676959577e-10
 22 3.2252409175667637e-08
 23 8.2637818869251313e-10
 24 0.36280597674659115
 25 0.36286667299445674
 26 0.36286667320173299
 27 4.0068328595917833e-10
 28 1.1327832816831117e-08
 29 3.1363073734304161e-10
 30 -0.00057164136907766059
 31 0.0042166975168958726
 32 0.0034070763534827376
 33 2.2144255930741268e-08
 34 2.7657566675725364e-08
 35 0.00027603907441672729
 36 0.00027595096068972397
 37 0.00027603780222539009
Sym= A
Ene= -32.580638044358935
Spin= Alpha
Occup= 2
 1 0.00063631166022437807
 2 -0.0020216069266731501
 3 -0.13123776610007321
 4 -2.6321250932803843e-07
 5 -9.40327212370294e-06
 6 0.0072342647758397403
 7 0.41931591784277222
 8 8.4101308269407605e-07
 9 3.004493561511121e-05
 10 0.0053009198109548348
 11 0.037489023710080095
 12 7.483572440412257e-08
 13 2.6736881428875248e-06
 14 0.0010695581324365983
 15 -0.011177207982303735
 16 -1.9711577116962524e-08
 17 -6.996494772816257e-07
 18 -0.0026549509051819751
 19 -0.0013361036148374016
 20 -0.0013361035600615721
 21 -8.5097611544835031e-09
 22 -1.6845957646253371e-07
 23 1.8616152368854027e-10
 24 -0.002438717108745699
 25 -0.002330085059881676
 26 -0.0023300850516619503
 27 -1.6491408378565099e-09
 28 -2.867043604790843e-08
 29 3.9814282449132822e-11
 30 0.0003181842795883471
 31 -0.0024868714627553669
 32 -0.0019026269614776975
 33 -3.4302425203219734e-09
 34 3.6297864182598765e-08
 35 -7.373726222157444e-05
 36 -7.3720290047772332e-05
 37 -7.3737010828271835e-05
Sym= A
Ene= -32.576519754684568
Spin= Alpha
Occup= 2
 1 -4.2882739737938552e-08
 2 1.3923647425514977e-07
 3 -7.8858630281107033e-06
 4 0.074606804895150064
 5 0.10798680560313466
 6 -5.310478366116739e-07
 7 2.5196691140332703e-05
 8 -0.23838703866700939
 9 -0.34504432724569539
 10 6.6523258736202299e-07
 11 2.2470092344802644e-06
 12 -0.02115912370152569
 13 -0.030625975479004329
 14 7.3549073730626419e-08
 15 -6.6985313593114456e-07
 16 0.0055287793298334905
 17 0.008002423129383051
 18 3.3228225790848882e-08
 19 1.3395174744420643e-07
 20 2.5996705713094799e-07
 21 0.00042691155004696569
 22 0.0006179170194613267
 23 4.3946761021246944e-08
 24 -3.2603774985612999e-07
 25 -2.870620107622681e-07
 26 -3.2039149256299753e-07
 27 7.7857281731999082e-05
 28 0.00011269160253461443
 29 -3.7826552805780684e-08
 30 2.2035621507081933e-08
 31 -1.7304052886315582e-07
 32 -1.0815650116863712e-07
 33 -0.00032991649097810667
 34 -0.00047752733828306242
 35 -1.3699238625977409e-06
 36 2.4355151765820567e-06
 37 -1.0326934460864707e-06
Sym= A
Ene= -32.576519739352001
Spin= Alpha
Occup= 2
 1 2.3983450521848441e-08
 2 -7.8013486241268045e-08
 3 5.1283248934472843e-06
 4 0.10798680590530806
 5 -0.074606804729488621
 6 2.9896625674114415e-07
 7 -1.6385891366182874e-05
 8 -0.34504432824959785
 9 0.23838703816709975
 10 -4.1958395810538097e-07
 11 -1.4612554934311854e-06
 12 -0.030625975270132669
 13 0.021159123439848899
 14 -4.7620374737429986e-08
 15 4.3567819690483857e-07
 16 0.0080024229170360967
 17 -0.0055287791996178814
 18 -1.2118571825731336e-08
 19 -2.76069152173899e-08
 20 -2.0221220909941586e-07
 21 0.00061791699450778671
 22 -0.00042691152968155044
 23 1.1205126264727788e-07
 24 2.0518091672812559e-07
 25 2.4484260653677229e-07
 26 1.3769648249634065e-07
 27 0.00011269179559016293
 28 -7.7857437832109201e-05
 29 4.9649758476259197e-08
 30 -1.2819120346223758e-08
 31 1.0017645165884327e-07
 32 7.388483323397274e-08
 33 -0.00047751257554487991
 34 0.00032990927174891122
 35 -1.9737779312650897e-06
 36 -1.9536060797627117e-07
 37 2.1728958638121681e-06
Sym= A
Ene= -23.379724977182047
Spin= Alpha
Occup= 2
 1 6.2345486735245953e-05
 2 -0.0002093825541107002
 3 0.00011726917075175919
 4 -2.2731522829974214e-10
 5 5.4658849825342184e-09
 6 0.00084448710797797432
 7 -0.00038837103036265129
 8 7.5929934120845681e-10
 9 -1.8157019614771204e-08
 10 -0.0029975023327333092
 11 -2.6145458644043715e-05
 12 -5.4011181608457508e-11
 13 1.9137347178289124e-09
 14 -0.00039363901994030672
 15 0.00050738873752258641
 16 7.0199951226592924e-11
 17 4.2871926251429719e-09
 18 -0.97584640658418875
 19 0.48756726082445306
 20 0.48756828025115845
 21 -2.9502865363615164e-06
 22 -0.00013486553657560759
 23 1.7525067835566644e-06
 24 -0.063607277187473221
 25 0.033811722549445852
 26 0.033811790358392269
 27 -1.9639668880374984e-07
 28 -8.9738029281148229e-06
 29 1.165519517794053e-07
 30 -0.00015508206309432546
 31 0.00079170441487637247
 32 0.00074839706540428879
 33 -8.7303878352774488e-09
 34 -4.5761513239789551e-08
 35 -5.8018339409943828e-05
 36 -5.7973399295875446e-05
 37 -5.8027013765708224e-05
Sym= A
Ene= -23.378616145572142
Spin= Alpha
Occup= 2
 1 -1.1847846495315855e-10
 2 -3.3468476444870351e-10
 3 -2.6935315529418006e-10
 4 -6.2837287051515961e-05
 5 -8.6924539942209971e-05
 6 7.8561599431982873e-09
 7 1.3210786994651905e-09
 8 0.00021012866856657766
 9 0.00029067674220037393
 10 -2.5177987513559665e-07
 11 -6.4495209853949618e-09
 12 -2.3920765990522077e-05
 13 -3.309026061436176e-05
 14 -4.2490156091546655e-08
 15 5.652010337475404e-08
 16 -1.848920449484318e-05
 17 -2.5576691271753622e-05
 18 -0.00011103111070689945
 19 6.2739640391108045e-05
 20 4.8277504035539176e-05
 21 0.57157180380161154
 22 0.79067088756396098
 23 -4.7939613642004055e-05
 24 -7.272169449090752e-06
 25 4.2601033578635199e-06
 26 3.3589750876718334e-06
 27 0.038015855949078969
 28 0.052588371904435348
 29 -3.1397293298357896e-06
 30 -1.7866134961032414e-08
 31 8.8504899815439798e-08
 32 8.2501803173836499e-08
 33 0.00014684991208610979
 34 0.00020314271129589411
 35 4.601277019176159e-05
 36 -7.8147602109978896e-05
 37 3.2110136079215417e-05
Sym= A
Ene= -23.378616130852595
Spin= Alpha
Occup= 2
 1 5.7515943603412563e-11
 2 3.0805172995663928e-10
 3 -6.1635563528409914e-10
 4 -8.6924558805121625e-05
 5 6.283730522441178e-05
 6 -5.6931057741000659e-09
 7 1.7724273037514461e-09
 8 0.00029067681818782269
 9 -0.00021012873972220004
 10 1.7230874430241478e-07
 11 3.985982378934123e-09
 12 -3.309044817350907e-05
 13 2.3920917826492818e-05
 14 2.9315568918539876e-08
 15 -3.9123005244756249e-08
 16 -2.5576393583487528e-05
 17 1.848908945888973e-05
 18 7.6623252063937405e-05
 19 7.909540255615112e-05
 20 -0.00015570884482955688
 21 0.79067088528296825
 22 -0.57157178526437546
 23 0.00012434172080250891
 24 5.0194369042333303e-06
 25 5.137843252185224e-06
 26 -1.0394392179246378e-05
 27 0.052588371500931382
 28 -0.038015854593915321
 29 8.2344843545392554e-06
 30 1.2475865555282837e-08
 31 -6.4384399647636502e-08
 32 -5.7450641369456578e-08
 33 0.00020314499191001448
 34 -0.00014685331475032667
 35 6.3662543940775981e-05
 36 8.0344704990030389e-06
 37 -7.1677732022733308e-05
Sym= A
Ene= -23.375031336607297
Spin= Alpha
Occup= 2
 1 -3.2693300727601074e-10
 2 1.072046337600401e-09
 3 -1.7710058759431513e-10
 4 -6.2957049467422129e-09
 5 -7.2131804681484843e-09
 6 -4.0897063268964108e-09
 7 5.8851910198949435e-10
 8 1.8921798365743643e-08
 9 2.1873445247639611e-08
 10 6.450464512735993e-09
 11 5.7742848977744785e-11
 12 3.2440871900235723e-08
 13 3.377825273099128e-08
 14 6.4800513457397082e-10
 15 -8.3972028602754899e-10
 16 -8.4673562837252384e-08
 17 -8.9122365033604321e-08
 18 1.6720012045938219e-06
 19 -0.58250153336707189
 20 0.58249986455084712
 21 2.6431807401561328e-05
 22 3.0796360225631314e-05
 23 0.70676441967925652
 24 1.0828328464198753e-07
 25 -0.038688254800331341
 26 0.0386881381406445
 27 1.7971185955921119e-06
 28 2.0892532553059144e-06
 29 0.046941472816041913
 30 7.8510498357825322e-10
 31 -6.658320382297097e-09
 32 -4.145614550461823e-10
 33 8.0356076079564856e-06
 34 8.445383521430725e-06
 35 1.4740603993537139e-05
 36 -2.0777522190191794e-05
 37 6.046143352022865e-06
Sym= A
Ene= -23.375031336476749
Spin= Alpha
Occup= 2
 1 1.4737598588138528e-10
 2 -4.8349993355540925e-10
 3 7.8806542748849017e-11
 4 5.6374097842384914e-09
 5 -4.7964870010500852e-09
 6 1.8437151661217872e-09
 7 -2.6226453378773132e-10
 8 -2.101642328932376e-08
 9 1.8106441951716702e-08
 10 -3.1554959685844555e-09
 11 -2.9664623076674677e-11
 12 3.5774406469623611e-08
 13 -3.373331453311706e-08
 14 -2.9299598511712306e-10
 15 3.6932601982856347e-10
 16 -9.0810515891471518e-08
 17 8.6519176295981143e-08
 18 -7.6477876976307719e-07
 19 -0.61207554997181901
 20 0.61207631331321477
 21 0.00013320959706580212
 22 -0.00012960748015604037
 23 -0.67261385871966328
 24 -4.9434749428605396e-08
 25 -0.040652480491781676
 26 0.040652534054722522
 27 8.8915066335858971e-06
 28 -8.6502455734020135e-06
 29 -0.044673280501207016
 30 -3.7285664299174133e-10
 31 2.9445886122221288e-09
 32 8.2267988279305023e-11
 33 8.4746411891547245e-06
 34 -8.0625355167063848e-06
 35 1.5497447642559723e-05
 36 5.0190922910273507e-06
 37 -2.052100228049057e-05
Sym= A
Ene= -11.071880556652392
Spin= Alpha
Occup= 2
 1 4.5602790018386614e-05
 2 -0.00011958999292529813
 3 2.4881720060763227e-05
 4 -5.3504583700959648e-11
 5 -2.4455951865946956e-10
 6 0.00034302787852487208
 7 -0.00010089115293113211
 8 2.1580392014203364e-10
 9 9.9107574232045203e-10
 10 0.0083960903741398425
 11 0.00037773597208339731
 12 -8.6227332677313308e-10
 13 -3.9816215759395583e-09
 14 0.0034054903931305149
 15 -0.0043385606136533876
 16 3.4620524647691093e-09
 17 1.8985424499576185e-08
 18 -8.7495021426521786e-05
 19 5.432452855908237e-05
 20 5.4324398411031817e-05
 21 -2.1648960904427021e-10
 22 -4.8428924469195384e-11
 23 -2.5445139391834497e-10
 24 -0.0036694357610895312
 25 -0.0040469090111585658
 26 -0.0040469086634740891
 27 5.5455819516447165e-10
 28 1.0382201947504717e-10
 29 6.7508588121192997e-10
 30 -0.99213460620568583
 31 -0.036117272633156686
 32 0.0012329317326963082
 33 3.83643061860975e-07
 34 4.3108953376483679e-07
 35 0.0068032257663795609
 36 0.0068024214424688909
 37 0.0068032210043785053
Sym= A
Ene= -6.6556530986544509
Spin= Alpha
Occup= 2
 1 0.087580367276634583
 2 -0.29641176837822536
 3 0.00082721788939848443
 4 7.5596761593541766e-09
 5 1.0614581306969141e-07
 6 1.2043359623905763
 7 -0.0032703787492445037
 8 -2.9912612040133936e-08
 9 -4.198509098206122e-07
 10 -1.9233640504940559
 11 0.010955377276623168
 12 1.0041954969289245e-07
 13 1.4080905211428467e-06
 14 0.0017570938961054131
 15 -0.00044313315397424542
 16 4.689935730798316e-09
 17 5.81593138938915e-08
 18 -0.29243751730432377
 19 -0.29460109589901445
 20 -0.29460109322500261
 21 7.2248065384817562e-09
 22 1.8494931105629674e-07
 23 3.6369172294552413e-09
 24 0.38179796497990326
 25 0.38679082136600773
 26 0.38679081521969855
 27 -1.663854783566444e-08
 28 -4.2513757151534822e-07
 29 -8.3238785813064146e-09
 30 0.0004690909446377115
 31 -0.0017201056806712353
 32 -0.0015843714491727196
 33 5.0668049453346913e-09
 34 1.1815442861881411e-08
 35 3.5690300184244682e-05
 36 3.5663817376725258e-05
 37 3.5687019805572092e-05
Sym= A
Ene= -5.1658475498110299
Spin= Alpha
Occup= 2
 1 -0.0014284981692341981
 2 0.0048412978104944533
 3 0.04926746520529432
 4 1.5672678289839176e-07
 5 3.5616424296691399e-06
 6 -0.019748272735279307
 7 -0.19554138840235002
 8 -6.2207203021059432e-07
 9 -1.4136137363339204e-05
 10 0.031248348129311758
 11 0.66474728458102739
 12 2.1151084007262891e-06
 13 4.8057579184749881e-05
 14 -0.0010681535980985417
 15 0.01562438455593518
 16 4.7625274760428698e-08
 17 1.0906119974383702e-06
 18 0.0080414009995816195
 19 0.0031947431932955804
 20 0.0031947427907268807
 21 3.4827263836992033e-08
 22 5.4234499500114205e-07
 23 -1.7104402330250675e-09
 24 -0.013788347495989412
 25 -0.0021618648716523782
 26 -0.002161863927424775
 27 -8.2546505290402476e-08
 28 -1.2909119993375028e-06
 29 4.0652065639399546e-09
 30 0.00028023047287468105
 31 0.00064868556498498444
 32 -7.6115328150143748e-05
 33 2.0410502209557744e-08
 34 2.8775295024014151e-08
 35 0.00022328224428464998
 36 0.00022317079057543307
 37 0.00022329011261825011
Sym= A
Ene= -5.1501275734746415
Spin= Alpha
Occup= 2
 1 7.3793610121286986e-08
 2 -2.5014454427693351e-07
 3 3.0929347927259149e-06
 4 -0.026391357672735784
 5 -0.041616915643552306
 6 1.0205748138997131e-06
 7 -1.227680325986218e-05
 8 0.10475566394091146
 9 0.16519072961830769
 10 -1.7300869633339686e-06
 11 4.1750738158831434e-05
 12 -0.35625631034846039
 13 -0.56178575582729018
 14 4.5121634154740003e-08
 15 8.4791424714340064e-07
 16 -0.0072922163261161859
 17 -0.011499202308879424
 18 1.3157143306000153e-07
 19 -4.7897205934679303e-07
 20 -4.0038834660436456e-07
 21 -0.0014817255717980997
 22 -0.0023365551715596347
 23 3.1396467656582855e-07
 24 -5.3910928962284194e-07
 25 8.5070985104877979e-07
 26 7.8946214701296885e-07
 27 0.00351910217103449
 28 0.0055493246516604413
 29 -6.3347463079205991e-07
 30 2.5457676867910322e-08
 31 7.0910735915790391e-09
 32 -5.3853973992250838e-08
 33 7.0642198105840982e-05
 34 0.00011139443201178068
 35 -7.9580842297343967e-05
 36 0.00014846951250519958
 37 -6.8877979361697505e-05
Sym= A
Ene= -5.1501275253687986
Spin= Alpha
Occup= 2
 1 -3.6466144405159804e-08
 2 1.2361534902724334e-07
 3 -1.7756264152252004e-06
 4 -0.04161691573088501
 5 0.026391357580697584
 6 -5.0425032868109327e-07
 7 7.0480329987186759e-06
 8 0.16519073001346321
 9 -0.10475566361420446
 10 8.5719507082561512e-07
 11 -2.3969196125448331e-05
 12 -0.56178575783551765
 13 0.35625630973904165
 14 -1.995457313826389e-08
 15 -4.8574293262445572e-07
 16 -0.011499199923431104
 17 0.0072922152265874913
 18 -9.1336830031025041e-08
 19 -4.0709283575359239e-07
 20 8.6786337836482536e-07
 21 -0.002336556217820771
 22 0.0014817269544593994
 23 -6.2072303937077817e-07
 24 3.2779631572913553e-07
 25 9.8192624247398628e-07
 26 -1.856962293857571e-06
 27 0.0055493267410137662
 28 -0.0035191050894995404
 29 1.4061762682053943e-06
 30 -1.6019823341743989e-08
 31 1.1921776544376285e-08
 32 2.7861251259327592e-08
 33 0.00011137457373473856
 34 -7.0626725214955943e-05
 35 -0.00012552302814384565
 36 -6.1924719150945004e-06
 37 0.00013168042375973077
Sym= A
Ene= -1.9698585850215269
Spin= Alpha
Occup= 2
 1 0.00018680760358056364
 2 -0.00069899693438172316
 3 0.00027312638705765714
 4 2.4605904012691442e-11
 5 5.4545865203360323e-09
 6 0.0028063721439849526
 7 -0.0010865492971035727
 8 -8.6297853237314483e-11
 9 -2.1501577971551655e-08
 10 -0.018012004816232122
 11 0.0036305736956838328
 12 1.619195827618641e-10
 13 6.7795476009218589e-08
 14 -0.0084273973919063334
 15 0.013780640656491545
 16 8.97065160859814e-09
 17 2.2528425001548948e-07
 18 -0.43031196275820521
 19 0.21393418490432031
 20 0.21393458796867956
 21 -2.0166797803577588e-06
 22 -4.201829832590018e-05
 23 6.1972492228736075e-07
 24 1.0692152276952185
 25 -0.52451812139519816
 26 -0.52451911862632028
 27 4.989278242925006e-06
 28 0.0001039544285164114
 29 -1.5332721023367151e-06
 30 -0.0082180571324049542
 31 0.032457468691309652
 32 0.02590886061184863
 33 -2.4745997488096708e-07
 34 -1.1223980997393338e-06
 35 -0.00070919613250300568
 36 -0.00070863439425271617
 37 -0.00070925766395092053
Sym= A
Ene= -1.9640873205993898
Spin= Alpha
Occup= 2
 1 1.3678966222909701e-08
 2 -4.1109726562047681e-08
 3 1.0497148114475324e-08
 4 0.00016239246750637985
 5 0.00024749932753628063
 6 1.8382909901067424e-07
 7 -4.3050051129211413e-08
 8 -0.00065142212013456996
 9 -0.0009928202960921876
 10 1.07861061288729e-06
 11 1.6889029135104076e-07
 12 0.0022887468954620048
 13 0.0034882366969922573
 14 8.6444386627657661e-07
 15 -1.2623275097676174e-06
 16 2.6341425214786061e-05
 17 4.0138385927923171e-05
 18 3.6152845483820266e-05
 19 -5.0894453054900166e-05
 20 1.4638494588281828e-05
 21 -0.23593957180931882
 22 -0.35959086801510848
 23 7.8318658395463208e-05
 24 -9.0070906697134795e-05
 25 0.00012534986449827206
 26 -3.691055156465747e-05
 27 0.58376858649756269
 28 0.8897102385986152
 29 -0.00019388136658706333
 30 6.6441524972825668e-07
 31 -2.7150795470747872e-06
 32 -2.1663801901541956e-06
 33 -0.0047853796521283862
 34 -0.0072933120337484603
 35 -0.00033489631216405307
 36 0.00060988891801962901
 37 -0.00027450606327990962
Sym= A
Ene= -1.9640872836959178
Spin= Alpha
Occup= 2
 1 8.3074634954696526e-09
 2 -2.5012106797198796e-08
 3 4.7252417748823913e-09
 4 -0.00024749969951710021
 5 0.00016239291088447096
 6 1.1158305373069119e-07
 7 -1.9502358999146992e-08
 8 0.00099282181256317545
 9 -0.00065142392274942921
 10 6.5009653567449451e-07
 11 7.8057371927128374e-08
 12 -0.0034882429052034967
 13 0.0022887541584353161
 14 5.0744985988248596e-07
 15 -7.2512813095894286e-07
 16 -4.0115687039367087e-05
 17 2.6315920139429902e-05
 18 2.1311475046906055e-05
 19 8.8225918587024496e-05
 20 -0.00010960020383597029
 21 0.35959085924826878
 22 -0.23593955661559282
 23 8.8529250276963005e-05
 24 -5.3104340812357616e-05
 25 -0.00021876326773846336
 26 0.00027088335127462883
 27 -0.88971021739290723
 28 0.58376854917171872
 29 -0.00021910981011704234
 30 4.1848790835620474e-07
 31 -1.6817927595169506e-06
 32 -1.2802348563532547e-06
 33 0.0072933297884963779
 34 -0.0047854027254983873
 35 0.00051043047762513744
 36 3.4911236796364985e-05
 37 -0.00054515603743242726
Sym= A
Ene= -1.9501307853916408
Spin= Alpha
Occup= 2
 1 8.870442773981494e-10
 2 -3.0847162201728491e-09
 3 2.4241951998719318e-10
 4 2.7131801697545185e-08
 5 2.9147777325135416e-08
 6 1.2706931984844995e-08
 7 -9.6454152363876297e-10
 8 -1.0654780867169836e-07
 9 -1.1505883646393692e-07
 10 -2.289489800953255e-08
 11 3.165621299383815e-09
 12 3.3398516862472056e-07
 13 3.710574178821902e-07
 14 -1.0495446832467516e-08
 15 1.8957750890200678e-08
 16 7.512255604428684e-07
 17 5.9586699304451042e-07
 18 -5.7233131921407202e-07
 19 0.28617063284366306
 20 -0.28617007021223961
 21 -6.9591785710238928e-05
 22 -4.927718840917787e-05
 23 -0.27524300268214147
 24 1.4129069054173717e-06
 25 -0.70819130403021491
 26 0.70818990537461723
 27 0.00017211322013095778
 28 0.00012185833632194433
 29 0.68114850986916331
 30 -2.0181196546900395e-08
 31 1.6258770428226895e-07
 32 2.1525650448699241e-08
 33 -0.00019732561247431108
 34 -0.00016419905949200945
 35 -0.00050265459852511483
 36 0.00061374564827494605
 37 -0.00011132991188960173
Sym= A
Ene= -1.9501307842872986
Spin= Alpha
Occup= 2
 1 4.1988330564702935e-10
 2 -1.467035830804045e-09
 3 8.037097471239291e-11
 4 -5.9492596846854889e-11
 5 7.9231066530131436e-09
 6 6.006576509545768e-09
 7 -3.1892201286297088e-10
 8 -1.8639900420677146e-09
 9 -2.9309949227704502e-08
 10 -9.0884905693139874e-09
 11 9.7337048498152462e-10
 12 4.1153504335836678e-08
 13 6.1968716047140129e-08
 14 -8.4861638903630084e-09
 15 1.1904148347064144e-08
 16 -7.2115271724865804e-07
 17 8.294895674979242e-07
 18 -3.1805632873778788e-07
 19 -0.23836726438576034
 20 0.23836757783129386
 21 9.8373000512661435e-05
 22 -0.00010762019884520077
 23 -0.33044104880969932
 24 7.8463669338243017e-07
 25 0.58989149486154357
 26 -0.58989227514567777
 27 -0.00024335571059690253
 28 0.0002662221893805993
 29 0.81774804736674933
 30 -1.2439042609077839e-08
 31 9.7146729542664905e-08
 32 8.9489272836394226e-09
 33 0.00016526797585231619
 34 -0.00019810612001998446
 35 0.00041873991691692238
 36 0.00022581073510290279
 37 -0.00064471442089124092
Sym= A
Ene= -0.94071801670387367
Spin= Alpha
Occup= 2
 1 -0.0051914369610497708
 2 0.017667070885302866
 3 -0.0019342364570930925
 4 -1.6218518978209843e-08
 5 -4.3582996665702774e-08
 6 -0.073917493945002286
 7 0.0078288758230097757
 8 6.5601649663451253e-08
 9 1.7657012783223955e-07
 10 0.15010296397209325
 11 -0.032554523841248476
 12 -2.7415225723740087e-07
 13 -7.2663302784984881e-07
 14 -0.21513128623645511
 15 0.1042295231185458
 16 7.4038610179795111e-07
 17 2.9748272750767448e-06
 18 0.0058429190500909342
 19 0.023934622093663573
 20 0.023934642467380203
 21 -2.1360080729977276e-07
 22 -2.3514404313451969e-07
 23 3.5426131657263382e-08
 24 -0.00065936667988566588
 25 -0.047036410048889518
 26 -0.047036462581503437
 27 5.4733985430629313e-07
 28 5.9949801403222138e-07
 29 -9.1047956360579485e-08
 30 0.21665972128605462
 31 -0.6371807422678496
 32 0.01115448847993864
 33 1.150075507488138e-05
 34 8.8214353983498346e-06
 35 -0.1798291875222198
 36 -0.17980076572433332
 37 -0.17982600566921181
Sym= A
Ene= -0.66287106829809839
Spin= Alpha
Occup= 2
 1 -0.018144780650090821
 2 0.060822079719211365
 3 -0.0011786969824858821
 4 1.3821013925293317e-08
 5 -6.9364284288047738e-08
 6 -0.25996651896565109
 7 0.0047756695726575409
 8 -5.5966571972352901e-08
 9 2.8123893265751238e-07
 10 0.43339160153574008
 11 -0.019859441233812967
 12 2.3520710464673015e-07
 13 -1.1482087933683226e-06
 14 -0.89816047757494644
 15 0.080276472070703972
 16 -6.9554992759772469e-07
 17 5.5128194668209241e-06
 18 0.058440921064326891
 19 0.063398644933291601
 20 0.063398632241232017
 21 1.4129268861989174e-07
 22 -1.1810208396540018e-07
 23 -1.0002869471666197e-08
 24 -0.067506889814267543
 25 -0.080325375976769545
 26 -0.080325343154221227
 27 -3.6537616284040953e-07
 28 2.9916869462107958e-07
 29 2.5952949450630344e-08
 30 -0.044998341237739714
 31 0.13946870925425767
 32 -0.23234222470684252
 33 -1.1092885745182484e-05
 34 6.9872766399896077e-06
 35 0.11998699432598378
 36 0.11998449402255586
 37 0.11996945330522932
Sym= A
Ene= -0.55745286168243613
Spin= Alpha
Occup= 2
 1 5.0989259393989307e-07
 2 -1.7076685748224661e-06
 3 -1.1660074863076618e-07
 4 0.0013940693433285663
 5 -0.0010665754914997118
 6 7.3156216793592015e-06
 7 4.7394444390200596e-07
 8 -0.0056583567628083146
 9 0.0043290993460344766
 10 -1.1891224267873983e-05
 11 -1.9542984244048452e-06
 12 0.023469748259540183
 13 -0.017956249508361631
 14 2.5559485478121635e-05
 15 1.0396765524097268e-05
 16 -0.10606742112744208
 17 0.081150202327153628
 18 -1.7078551305376019e-06
 19 0.00016349636289959916
 20 -0.00016699612028850944
 21 0.0043383952316907006
 22 -0.0033192120780169958
 23 0.00014601273633985779
 24 1.9421132340318141e-06
 25 -0.00042600771359294282
 26 0.00043011519840523664
 27 -0.011209157504630729
 28 0.0085758823590539966
 29 -0.00037823797858381383
 30 3.1509109690999093e-06
 31 -9.0244266242943672e-06
 32 8.2388048130448752e-06
 33 -0.39022570304587545
 34 0.29855325323185944
 35 0.37506726995585538
 36 0.061001534273775658
 37 -0.43607326047116657
Sym= A
Ene= -0.55742547901283102
Spin= Alpha
Occup= 2
 1 -4.7644856158272291e-07
 2 1.5878971406906051e-06
 3 1.0327482772253302e-07
 4 0.0010666967796562317
 5 0.0013942109438829125
 6 -6.8441096096555627e-06
 7 -4.1969153810478231e-07
 8 -0.0043295923972540406
 9 -0.0056589325622599645
 10 1.0278497152007928e-05
 11 1.747822871381397e-06
 12 0.017958289109622182
 13 0.02347212662657177
 14 -2.4458980495808126e-05
 15 -8.8380888967496035e-06
 16 -0.081161035417528782
 17 -0.10608047612681885
 18 1.5698696086327945e-06
 19 0.00012808598610534615
 20 -0.00012481397264465697