[Molden Format]
[Title]
generated by GANSU
[Atoms] (Angs)
C 1 6 -0.05 0.665 0
O 2 8 -0.05 -0.768 0
H 3 1 -1.09 0.996 0
H 4 1 0.439 1.082 0.886
H 5 1 0.439 1.082 -0.886
H 6 1 0.912 -1.005 0
[GTO]
1 0
 s 3 1.00
    13.0451 0.535328
    3.53051 0.444635
    71.6168 0.154329
 s 3 1.00
    2.94125 -0.0999672
    0.683483 0.399513
    0.22229 0.700115
 p 3 1.00
    0.22229 0.391957
    0.683483 0.607684
    2.94125 0.155916

2 0
 s 3 1.00
    130.709 0.154329
    23.8089 0.535328
    6.44361 0.444635
 s 3 1.00
    5.03315 -0.0999672
    0.380389 0.700115
    1.1696 0.399513
 p 3 1.00
    0.380389 0.391957
    1.1696 0.607684
    5.03315 0.155916

3 0
 s 3 1.00
    3.42525 0.154329
    0.623914 0.535328
    0.168855 0.444635

4 0
 s 3 1.00
    3.42525 0.154329
    0.623914 0.535328
    0.168855 0.444635

5 0
 s 3 1.00
    0.168855 0.444635
    0.623914 0.535328
    3.42525 0.154329

6 0
 s 3 1.00
    0.168855 0.444635
    3.42525 0.154329
    0.623914 0.535328

[MO]
Sym= A
Ene= -20.2636
Spin= Alpha
Occup= 2
 1 0.0005164037916910425
 2 -0.004209487434891448
 3 0.00012257463851458113
 4 0.003365732083083231
 5 -2.0044074029803558e-15
 6 0.99422233347679645
 7 0.025642955554797873
 8 0.0023852024970672041
 9 0.0017632219331834421
 10 1.7626845530588721e-16
 11 0.00031826143325852072
 12 0.00030830160550078767
 13 0.00030830160549638147
 14 -0.0057000867902025337
Sym= A
Ene= -11.08592223961079
Spin= Alpha
Occup= 2
 1 0.99215150648567119
 2 0.036178399928101901
 3 -0.000130114046092467
 4 0.00083920513915868012
 5 5.3106738082750037e-17
 6 0.00042211933876660671
 7 -0.0042387189197473909
 8 0.00027458858225451265
 9 -0.002113932870445655
 10 -9.839195402148731e-18
 11 -0.0069412378554290664
 12 -0.0068857123398184689
 13 -0.0068857123398182608
 14 -0.0011011094011022966
Sym= A
Ene= -1.2787524188174946
Spin= Alpha
Occup= 2
 1 -0.082440918841786018
 2 0.21037735322278184
 3 0.0060795738039325573
 4 -0.083861105952851428
 5 1.6224936182098299e-15
 6 -0.22469431532674558
 7 0.80840467782605774
 8 0.065906411034663631
 9 0.055874646291136532
 10 -3.7102122539203285e-16
 11 0.026372559750358907
 12 0.026217748599279941
 13 0.026217748599283008
 14 0.14545447310726206
Sym= A
Ene= -0.87720050795570081
Spin= Alpha
Occup= 2
 1 0.20399772587861068
 2 -0.60862686534246258
 3 0.0051817516846787521
 4 -0.091161161974616198
 5 1.1875580238486392e-16
 6 -0.073434156433644884
 7 0.30728243176063696
 8 0.055232675290209303
 9 -0.12090748335176126
 10 -1.5237632099436316e-16
 11 -0.19769029209862146
 12 -0.19805220813889887
 13 -0.19805220813889532
 14 0.14354203629860318
Sym= A
Ene= -0.61111568521386128
Spin= Alpha
Occup= 2
 1 -0.0046973630010765871
 2 -0.0064491665189588768
 3 0.32366332099662132
 4 0.18553453663001018
 5 2.4583711173418661e-15
 6 0.043515817503110718
 7 -0.21398185520788612
 8 0.32187943991012435
 9 -0.12597076375790306
 10 1.6278053484619583e-15
 11 -0.2101981781564902
 12 0.19855359674477313
 13 0.19855359674476974
 14 0.34741262424053621
Sym= A
Ene= -0.5714697766616107
Spin= Alpha
Occup= 2
 1 3.6752068394239576e-16
 2 -6.6316611877395918e-16
 3 -8.4623576772112865e-16
 4 6.5621986300990102e-16
 5 0.45929932502333992
 6 -4.7747165234083572e-16
 7 2.2419236740474596e-15
 8 -3.4915254765781004e-16
 9 6.7802911906846291e-16
 10 0.27813007183365429
 11 3.5763201742193327e-15
 12 0.35771803825503584
 13 -0.35771803825504239
 14 -1.413128074886383e-15
Sym= A
Ene= -0.51720582203717158
Spin= Alpha
Occup= 2
 1 0.0140556820380918
 2 -0.088654417331822846
 3 -0.31777626053566088
 4 0.33940692097769015
 5 3.9737094169199712e-15
 6 -0.016831030384761265
 7 0.079764889102240583
 8 0.057364931218684669
 9 -0.3598978596544421
 10 -5.5135339357824289e-15
 11 0.40705847999964834
 12 -0.040893080808943036
 13 -0.040893080808937159
 14 0.23981082601433351
Sym= A
Ene= -0.41892499183975956
Spin= Alpha
Occup= 2
 1 -0.018899321966989548
 2 0.079130588054471124
 3 -0.20040138950167327
 4 -0.20843093133576746
 5 3.7760359271664413e-15
 6 0.084872179877794385
 7 -0.44337089604724222
 8 0.41515429049537944
 9 0.30205672651621673
 10 -7.7730573847794777e-15
 11 0.23543198027282525
 12 -0.19950837838844718
 13 -0.19950837838844562
 14 0.29869360625331581
Sym= A
Ene= -0.35961656688939975
Spin= Alpha
Occup= 2
 1 -1.7810914273447597e-16
 2 7.0811062117900064e-18
 3 -4.8582452310234442e-15
 4 -1.9093612235762006e-16
 5 -0.15871891524222831
 6 7.0281705137671363e-16
 7 -3.6009692716243695e-15
 8 4.8806847734262495e-15
 9 7.4837418522960724e-16
 10 0.68737710335957336
 11 4.5253023485003746e-15
 12 -0.26326550157331141
 13 0.26326550157330875
 14 3.8371633762138246e-15
Sym= A
Ene= 0.57307278710388421
Spin= Alpha
Occup= 0
 1 0.043636137498833188
 2 -0.18086640225472192
 3 0.068521857301932748
 4 0.60313312277117603
 5 2.0285359666704848e-14
 6 -0.12428845991156129
 7 0.78587669796611592
 8 0.43931808973173858
 9 0.30113666215611179
 10 -3.2961654017860471e-15
 11 0.032190184487565693
 12 -0.12914841484935172
 13 -0.12914841484931175
 14 -0.79741818589521085
Sym= A
Ene= 0.65065916322908657
Spin= Alpha
Occup= 0
 1 -0.070869441315545886
 2 0.37433930724886605
 3 0.62459112802301497
 4 -0.42495915626733849
 5 1.9070817182594036e-14
 6 0.0064848305370970548
 7 -0.02002605349669357
 8 0.22848424529264047
 9 -0.45621579717470734
 10 -2.713757937444232e-15
 11 0.64557569360760192
 12 -0.34475337671056133
 13 -0.34475337671052503
 14 -0.55535022394802658
Sym= A
Ene= 0.69735814140364227
Spin= Alpha
Occup= 0
 1 5.7117433494908914e-15
 2 -2.7202530916713746e-14
 3 1.2678951873598946e-13
 4 8.0491559444681974e-14
 5 0.94338914536581753
 6 3.2258981991978099e-15
 7 -2.3520691884636201e-14
 8 -9.2045273146883485e-14
 9 7.2149878507944757e-14
 10 -0.12989056729695433
 11 1.1483552039758187e-13
 12 -0.85008579906729942
 13 0.85008579906714166
 14 1.3528912797079715e-13
Sym= A
Ene= 0.72370825818626916
Spin= Alpha
Occup= 0
 1 -0.10951645956463714
 2 0.73258274261359879
 3 0.49902799880503329
 4 0.53592241802637386
 5 -1.5739187293264308e-13
 6 0.018435442262972071
 7 -0.1259033655416017
 8 -0.33564463230721603
 9 0.20005489663776585
 10 2.1711306432935398e-14
 11 0.051657127459411985
 12 -0.75592199476224953
 13 -0.75592199476253008
 14 0.50266398991987182
Sym= A
Ene= 0.73451665072321948
Spin= Alpha
Occup= 0
 1 0.20638184121211917
 2 -1.2730949454316576
 3 0.48869663075624403
 4 -0.044683624998261701
 5 -1.0812309636569982e-13
 6 -0.018570585215404653
 7 0.10101314215902173
 8 -0.19514038769161132
 9 0.30900396831005816
 10 1.4712471137846708e-14
 11 1.0660151291832123
 12 0.32312271338035969
 13 0.32312271338016563
 14 0.24338954761937986
