[Molden Format]
[Title]
generated by GANSU
[Atoms] (Angs)
Mo 1 42 1.06051 0.06229 0.02258
F 2 9 1.05811 0.73531 -1.83015
F 3 9 1.06057 -1.7905 -0.6507
F 4 9 -0.91077 0.06102 0.02457
F 5 9 1.06296 -0.6109 1.87558
F 6 9 1.06034 1.91498 0.69598
F 7 9 3.03193 0.06335 0.02074
[GTO]
1 0
 s 3 1.00
    690.11 0.535328
    186.771 0.444635
    3788.67 0.154329
 s 3 1.00
    326.431 -0.0999672
    75.8555 0.399513
    24.6706 0.700115
 p 3 1.00
    326.431 0.155916
    75.8555 0.607684
    24.6706 0.391957
 s 3 1.00
    35.4695 -0.227764
    10.8193 0.217544
    4.17443 0.916677
 p 3 1.00
    35.4695 0.00495151
    10.8193 0.577766
    4.17443 0.484646
 s 3 1.00
    0.599412 1.11558
    1.36167 0.057611
    3.4969 -0.33061
 p 3 1.00
    3.4969 -0.128393
    1.36167 0.585205
    0.599412 0.543944
 s 3 1.00
    0.122002 1.3755
    0.276199 -0.197257
    0.512963 -0.384264
 p 3 1.00
    0.276199 0.629032
    0.122002 0.666283
    0.512963 -0.348169
 d 3 1.00
    35.4695 0.219768
    10.8193 0.655547
    4.17443 0.286573
 d 3 1.00
    1.70211 0.125066
    0.662794 0.668679
    0.291763 0.305247

2 0
 s 3 1.00
    8.21682 0.444635
    30.3608 0.535328
    166.679 0.154329
 s 3 1.00
    6.4648 -0.0999672
    1.50228 0.399513
    0.488588 0.700115
 p 3 1.00
    1.50228 0.607684
    6.4648 0.155916
    0.488588 0.391957

3 0
 s 3 1.00
    166.679 0.154329
    8.21682 0.444635
    30.3608 0.535328
 s 3 1.00
    0.488588 0.700115
    1.50228 0.399513
    6.4648 -0.0999672
 p 3 1.00
    6.4648 0.155916
    1.50228 0.607684
    0.488588 0.391957

4 0
 s 3 1.00
    166.679 0.154329
    30.3608 0.535328
    8.21682 0.444635
 s 3 1.00
    6.4648 -0.0999672
    1.50228 0.399513
    0.488588 0.700115
 p 3 1.00
    0.488588 0.391957
    6.4648 0.155916
    1.50228 0.607684

5 0
 s 3 1.00
    166.679 0.154329
    8.21682 0.444635
    30.3608 0.535328
 s 3 1.00
    6.4648 -0.0999672
    1.50228 0.399513
    0.488588 0.700115
 p 3 1.00
    6.4648 0.155916
    1.50228 0.607684
    0.488588 0.391957

6 0
 s 3 1.00
    8.21682 0.444635
    30.3608 0.535328
    166.679 0.154329
 s 3 1.00
    1.50228 0.399513
    0.488588 0.700115
    6.4648 -0.0999672
 p 3 1.00
    6.4648 0.155916
    1.50228 0.607684
    0.488588 0.391957

7 0
 s 3 1.00
    166.679 0.154329
    30.3608 0.535328
    8.21682 0.444635
 s 3 1.00
    0.488588 0.700115
    6.4648 -0.0999672
    1.50228 0.399513
 p 3 1.00
    0.488588 0.391957
    1.50228 0.607684
    6.4648 0.155916

[MO]
Sym= A
Ene= -714.609
Spin= Alpha
Occup= 2
 1 0.99574636797548655
 2 0.01256400992868955
 3 -1.1255566347170289e-09
 4 2.6210868683265367e-11
 5 -2.4884845942026363e-11
 6 -0.071966598098604853
 7 4.0357397844774764e-10
 8 -9.105346584128491e-11
 9 8.4580046730995192e-11
 10 -0.00062370429151581419
 11 -1.0616849343199092e-10
 12 4.7566536306538606e-10
 13 -4.603188298463122e-10
 14 0.00017079591594476237
 15 -1.72156756576201e-10
 16 -2.030475287553764e-09
 17 1.7196367650189768e-09
 18 0.031740703762574159
 19 0.03174070386897343
 20 0.031740703688315761
 21 -1.4512201233973296e-10
 22 -2.1602641948652423e-10
 23 -1.3232806360435529e-10
 24 -3.6541900178710396e-05
 25 -3.6542494163481487e-05
 26 -3.6541236804001065e-05
 27 1.0199990085847731e-09
 28 1.4493037054292772e-09
 29 9.2125415990000154e-10
 30 1.8043134908138185e-06
 31 -1.9987347139363218e-05
 32 -1.2407889525574e-09
 33 3.5432089979126752e-07
 34 -9.7518668927543128e-07
 35 1.8050084507024999e-06
 36 -1.9988423331387603e-05
 37 5.3494585680493823e-11
 38 -9.7913941129318394e-07
 39 -3.5589569259437265e-07
 40 1.8047814833105705e-06
 41 -1.9988079772667935e-05
 42 -1.0404222639398553e-06
 43 -5.74560853769065e-10
 44 9.9760900301520353e-10
 45 1.8057066670648311e-06
 46 -1.9988803855442577e-05
 47 1.2984491236389412e-09
 48 -3.5728892429278541e-07
 49 9.8358067730092147e-07
 50 1.8047078162281537e-06
 51 -1.9987684175193018e-05
 52 -1.0549990780475231e-10
 53 9.7759000727837275e-07
 54 3.5520461258691655e-07
 55 1.8053210816440339e-06
 56 -1.998808756745879e-05
 57 1.0441668831656647e-06
 58 6.3036466459567896e-10
 59 -1.065313990210884e-09
Sym= A
Ene= -102.00066754904087
Spin= Alpha
Occup= 2
 1 -0.41978637287694559
 2 1.0410892071618567
 3 -4.442262961470371e-07
 4 1.0469683781713554e-08
 5 -1.702588875475792e-08
 6 -1.8657231022258229
 7 -3.5393564827819764e-08
 8 8.5988041311542773e-09
 9 -1.2068136477020041e-08
 10 -0.10668496971288662
 11 2.1383557421442814e-08
 12 -4.0133223276650881e-08
 13 5.6427043558231085e-08
 14 -0.025388990359711774
 15 -2.0027933263288693e-07
 16 2.842928136569586e-07
 17 -4.4947906985599443e-07
 18 0.88325462634049678
 19 0.8832546081669288
 20 0.8832546238424005
 21 4.6163765460071064e-09
 22 -4.4229198376058245e-09
 23 -4.457097983743462e-09
 24 0.037242787960644071
 25 0.037242875639835957
 26 0.037242813785560096
 27 -4.405346315585024e-09
 28 -5.2094227511696223e-09
 29 2.3692722627058858e-08
 30 -4.9770726184248347e-05
 31 0.0010223384798667794
 32 -7.0294152207534542e-07
 33 0.00019948635618109809
 34 -0.00054917270865814487
 35 -4.9827275880108372e-05
 36 0.0010227497212038361
 37 2.6259768284245203e-08
 38 -0.00054877872741515912
 39 -0.0001993950000320939
 40 -4.9806354465356702e-05
 41 0.0010225940955687282
 42 -0.00058401668848890795
 43 -3.8867188642560109e-07
 44 6.0897808145448825e-07
 45 -4.9884771718584041e-05
 46 0.0010231586689336131
 47 7.3333326098100411e-07
 48 -0.00019922354014716755
 49 0.00054836166617023945
 50 -4.980613419735061e-05
 51 0.0010225966832852137
 52 -4.1781677814362558e-08
 53 0.00054888915279081331
 54 0.00019952977060712189
 55 -4.9855093958809174e-05
 56 0.0010229437650055608
 57 0.00058364215369182196
 58 3.0151968520861292e-07
 59 -5.2518379024869176e-07
Sym= A
Ene= -94.593011091715042
Spin= Alpha
Occup= 2
 1 4.7889812362763453e-07
 2 -1.1930372778681235e-06
 3 -0.18272803236120599
 4 -0.067389153493035758
 5 0.17479568341346266
 6 2.0869784595982954e-06
 7 -0.0027701595273230527
 8 -0.001021620524270703
 9 0.0026499056777944834
 10 1.2344125568055315e-07
 11 -0.00060040485849130508
 12 -0.00022142680110807207
 13 0.00057434037736083139
 14 2.1942951373827729e-08
 15 0.00041627997572095095
 16 0.00015352545583245474
 17 -0.00039820779688372636
 18 -9.232188549633436e-07
 19 -1.0164572854610547e-06
 20 -1.0211327676747801e-06
 21 1.9828510955109939e-08
 22 -5.1292566435704942e-08
 23 4.2006895409646832e-09
 24 -5.6990721039615735e-08
 25 -3.7787258589666488e-08
 26 -2.466566443273549e-08
 27 -3.5116267933839237e-09
 28 4.9147069400780874e-09
 29 -5.3448952354709131e-09
 30 1.0016665949422621e-05
 31 -9.3100435048201497e-05
 32 -1.5276462385047372e-05
 33 6.3371183730793275e-06
 34 -1.8339120554524617e-05
 35 -1.9461571711228349e-07
 36 1.8078021575397988e-06
 37 -1.5230832455239535e-05
 38 -4.9780165836911045e-06
 39 1.4802009191579232e-05
 40 -9.7963100639797667e-06
 41 9.1040387394369319e-05
 42 1.9016418867607031e-05
 43 -5.5956392712777761e-06
 44 1.4536580173883542e-05
 45 -1.0018059606792251e-05
 46 9.3079217276434943e-05
 47 -1.5271279310171695e-05
 48 6.3440838867755156e-06
 49 -1.8354925027275746e-05
 50 1.9333754496204323e-07
 51 -1.7971971429404102e-06
 52 -1.5231659641544448e-05
 53 -4.9819238103495056e-06
 54 1.4801562367655044e-05
 55 9.7954281126897726e-06
 56 -9.1020347792891091e-05
 57 1.901710403716961e-05
 58 -5.5980895677931335e-06
 59 1.45361131759075e-05
Sym= A
Ene= -94.59301053475977
Spin= Alpha
Occup= 2
 1 -4.2466799597799079e-07
 2 1.0577604088246787e-06
 3 0.14794273546848835
 4 0.097885919802037258
 5 0.19239453462570344
 6 -1.8566661262428499e-06
 7 0.0022428116824511875
 8 0.0014839505277423443
 9 0.0029167016548892252
 10 -1.1906254689138288e-07
 11 0.0004861148835351636
 12 0.00032163679686104561
 13 0.0006321752427422985
 14 -1.9750785213899685e-08
 15 -0.00033707222082953511
 16 -0.00022302616153068388
 17 -0.00043834929264585437
 18 8.2958691899023101e-07
 19 9.0521634988253818e-07
 20 8.9826897933375932e-07
 21 -2.9095639871284525e-08
 22 -6.4830754952306054e-08
 23 2.5770316877010624e-09
 24 4.7756348553281854e-08
 25 3.4199334261318341e-08
 26 4.4064153919723213e-08
 27 5.4989684683867055e-09
 28 5.230869813562338e-09
 29 -3.7329113570681344e-09
 30 7.9036500522007298e-06
 31 -7.3458226337991088e-05
 32 1.2301364967466991e-05
 33 1.759493567121673e-05
 34 -9.9280310152847454e-06
 35 8.4460482422665795e-06
 36 -7.8486389968924781e-05
 37 1.2333759556952821e-05
 38 -1.959331461324446e-05
 39 5.9535736894581099e-06
 40 7.9160998412860194e-06
 41 -7.3565154419795789e-05
 42 -1.5341443704055527e-05
 43 8.1430424807347297e-06
 44 1.6067808602294477e-05
 45 -7.90490907754543e-06
 46 7.3444888824868073e-05
 47 1.2296821547621266e-05
 48 1.7596994569453581e-05
 49 -9.9429486776355877e-06
 50 -8.4458807135668994e-06
 51 7.849084573333066e-05
 52 1.2336396152019959e-05
 53 -1.9589884372347576e-05
 54 5.9529990364159176e-06
 55 -7.9165798739834221e-06
 56 7.3560059493922234e-05
 57 -1.5347115785940677e-05
 58 8.1443872030424378e-06
 59 1.6062880362283625e-05
Sym= A
Ene= -94.593010185549545
Spin= Alpha
Occup= 2
 1 -3.3895379247347124e-07
 2 8.4426308794315662e-07
 3 0.11492508944345166
 4 -0.23315533778009248
 5 0.030251860341182706
 6 -1.4837058295727211e-06
 7 0.0017422661141191786
 8 -0.0035346386452938649
 9 0.00045861872808204094
 10 -1.0014767561033779e-07
 11 0.00037761711462840162
 12 -0.00076609538476058239
 13 9.9400869258911518e-05
 14 -2.4852192659985227e-08
 15 -0.00026180900550478456
 16 0.00053115728748272077
 17 -6.8917219875369259e-05
 18 6.6484919301013878e-07
 19 7.1907920879531427e-07
 20 7.195642272422546e-07
 21 7.3734246445309344e-08
 22 -1.2518756774134413e-08
 23 3.1857265342094903e-09
 24 4.032309296223631e-08
 25 3.5454764076823148e-08
 26 3.7975570058862401e-08
 27 -7.3175492230373589e-09
 28 -2.5153025162139098e-10
 29 -1.3165470225087316e-09
 30 5.7920127631443975e-06
 31 -5.3833654122697507e-05
 32 9.5558958647854982e-06
 33 -1.2523912431420148e-05
 34 -1.6508385396093794e-05
 35 -1.1180918283544648e-05
 36 0.0001039046549823632
 37 9.5780990881409267e-06
 38 1.730417087623487e-05
 39 1.5871678740105174e-05
 40 6.1438082106170418e-06
 41 -5.7096912984896204e-05
 42 -1.1899163445825344e-05
 43 -1.9449426427744945e-05
 44 2.5433622865083145e-06
 45 -5.7938851712663938e-06
 46 5.3832387232590146e-05
 47 9.5523293530176158e-06
 48 -1.2513505248191179e-05
 49 -1.6519544178582481e-05
 50 1.118027725988016e-05
 51 -0.00010390421306659273
 52 9.5760835704307315e-06
 53 1.7299292194012284e-05
 54 1.5873933984612701e-05
 55 -6.1457866664875287e-06
 56 5.7107519228394472e-05
 57 -1.1908496771975994e-05
 58 -1.9443453774102939e-05
 59 2.541382927545116e-06
Sym= A
Ene= -25.918739572825306
Spin= Alpha
Occup= 2
 1 3.3005457123309705e-05
 2 -0.0001473901202205339
 3 -2.1693227531686997e-06
 4 5.4094217394121125e-06
 5 -1.0449865846168683e-05
 6 0.00078357961680993599
 7 1.1065113595499967e-05
 8 -2.759190342952085e-05
 9 5.3301691460814343e-05
 10 -0.0039655483207541621
 11 -7.1870266886877102e-05
 12 0.0001792130793590932
 13 -0.00034619829511824129
 14 -0.010822246318350239
 15 0.00045279869337490168
 16 -0.0011287523026789169
 17 0.0021803217875152985
 18 -0.000261713535859299
 19 -0.00026094665886194825
 20 -0.00023726736592516191
 21 2.163895684117386e-08
 22 7.7545160378072384e-08
 23 -1.1390789301232647e-05
 24 0.0035895625531681165
 25 0.0035821328090655871
 26 0.0033526923268290543
 27 -1.9872237596259922e-07
 28 -7.602053754784048e-07
 29 0.00011037938432111673
 30 0.65948534310191353
 31 0.015591412524463347
 32 -1.7479547615224258e-05
 33 -0.00035450505998631861
 34 0.0010146054046106003
 35 0.32447051239707664
 36 0.0080791224843745797
 37 -1.8906727041565093e-05
 38 0.0006078236188894557
 39 0.0001128679551309574
 40 0.40514175881921055
 41 0.0099107764776548354
 42 0.00072820460220002908
 43 4.756009952043257e-05
 44 -9.1688097550700733e-05
 45 0.18613785798063695
 46 0.0047611311986622933
 47 -1.921203394540888e-05
 48 0.00013374707444473014
 49 -0.00032950983680611178
 50 0.38607145473489607
 51 0.0094881967778391238
 52 -1.8841355590734936e-05
 53 -0.00062629812982668322
 54 -0.00033566788110350396
 55 0.31780828174891607
 56 0.0079121054722116595
 57 -0.00059560491067978984
 58 4.6755059129921983e-05
 59 -9.0377354253529064e-05
Sym= A
Ene= -25.918409164042455
Spin= Alpha
Occup= 2
 1 -9.8134689512285531e-06
 2 4.381206787994283e-05
 3 1.3574521864668371e-05
 4 3.2815530436060801e-06
 5 -2.8711854698331915e-05
 6 -0.00023288915866507545
 7 -6.9239334797570329e-05
 8 -1.6738104645487237e-05
 9 0.00014644990096646798
 10 0.001178545255038529
 11 0.00044970302647077964
 12 0.00010871041340728901
 13 -0.00095117188160356858
 14 0.0032145869500105001
 15 -0.0028309182315659973
 16 -0.00068413109831393527
 17 0.005987337792032997
 18 3.4720327226542974e-05
 19 5.5771905048576913e-05
 20 0.00013531174175264058
 21 -7.4251318063272577e-08
 22 1.222468227969181e-07
 23 -3.845159266543208e-05
 24 -0.00064959952807060357
 25 -0.00085359918847244948
 26 -0.0016242810871587013
 27 7.2590459069437552e-07
 28 -1.2337020052961385e-06
 29 0.00037258066679600878
 30 0.6145593001544768
 31 0.013525449760851925
 32 0.00011931821559399468
 33 -0.00032822174351871975
 34 0.00073242892156202485
 35 -0.045769281930655992
 36 -0.0010688309231657155
 37 0.00011803864822681944
 38 3.2587785499889679e-05
 39 -0.00024817338220294461
 40 -0.47752284506334569
 41 -0.010902488116292531
 42 -0.00069755216512859715
 43 2.7990987214356793e-05
 44 -0.00024882737401277916
 45 -0.52418440931877019
 46 -0.012527800672295475
 47 0.00011952453482273794
 48 -0.00037228747817341125
 49 0.00085365958744798576
 50 -0.31829096513794586
 51 -0.0073041713999178783
 52 0.0001180217629437692
 53 0.0005236170653131287
 54 -6.9717185537915716e-05
 55 0.074223857211168962
 56 0.0017204576187918423
 57 -0.00014111953672104466
 58 2.8379990366545101e-05
 59 -0.00024937903241465526
Sym= A
Ene= -25.918375577181454
Spin= Alpha
Occup= 2
 1 4.2035805569849054e-06
 2 -1.8762312046317897e-05
 3 2.8793253463292937e-05
 4 1.3211076726352654e-05
 5 1.3150049185488115e-05
 6 9.9717602857678092e-05
 7 -0.00014686501712697642
 8 -6.7385479493059508e-05
 9 -6.7074095411484569e-05
 10 -0.00050461662184167824
 11 0.00095386426503558941
 12 0.00043766049095939757
 13 0.00043563407933754766
 14 -0.0013757245597689509
 15 -0.0060039957763277016
 16 -0.0027551609246564447
 17 -0.0027420895106485994
 18 -4.212622150683693e-05
 19 -1.1996823455000813e-05
 20 -4.2538223060402565e-05
 21 -1.9336805743470785e-08
 22 1.5529032014524037e-08
 23 1.4773662489927335e-05
 24 0.00054231482229248357
 25 0.00025035876766788196
 26 0.00054627095187066016
 27 2.0423615448354306e-07
 28 -1.1014642841012497e-07
 29 -0.00014315797560610869
 30 -0.14415173585401547
 31 -0.0031481540070406808
 32 0.00025009914701398794
 33 0.00020146097174080987
 34 -0.00012392087841638869
 35 -0.23976427440706585
 36 -0.0055330256586479977
 37 0.00025036747779541655
 38 -0.00038732367971356686
 39 -6.8166062622744376e-05
 40 -0.55677867909453338
 41 -0.012613747244372277
 42 -0.00081912280130578413
 43 0.00011418806220709352
 44 0.00011543770795277922
 45 0.1751290979707224
 46 0.0041574565176518124
 47 0.00024980370819121817
 48 0.0002408450058896186
 49 -0.00023250251863062964
 50 0.44529541535399325
 51 0.010141568516542765
 52 0.00025040582032470442
 53 -0.0006378415610469295
 54 -0.00015925325599274939
 55 0.61004299607740997
 56 0.014082414307000156
 57 -0.00095380982978304427
 58 0.00011421874701926299
 59 0.00011541530568455775
Sym= A
Ene= -25.91836099163794
Spin= Alpha
Occup= 2
 1 -6.3730466929377665e-06
 2 2.8448232104921149e-05
 3 -1.3409535447097935e-05
 4 3.1294333486470496e-05
 5 9.408473526869058e-08
 6 -0.0001512079156540014
 7 6.8397690846818543e-05
 8 -0.000159622378628127
 9 -4.7995240165624479e-07
 10 0.00076517817210627372
 11 -0.00044423277178580467
 12 0.0010367285125124914
 13 3.1192715628274503e-06
 14 0.0020864482698312444
 15 0.0027961195028701341
 16 -0.006526124263494866
 17 -1.9891505733846175e-05
 18 3.6095103058689064e-05
 19 4.7219504937799943e-05
 20 6.3272423120811893e-05
 21 -1.561054332782915e-08
 22 1.4511193269573713e-08
 23 -7.7551332543997591e-06
 24 -0.00055310512397683739
 25 -0.00066086780753641435
 26 -0.00081643282501519913
 27 1.961763358798029e-07
 28 -1.5269740265962409e-07
 29 7.512364962582822e-05
 30 0.1788590812663611
 31 0.0038929405314049436
 32 -0.00011622991879389841
 33 0.0001627596455702489
 34 0.00030205082541704797
 35 -0.67910645780757473
 36 -0.015632619211091794
 37 -0.00011652942520586464
 38 -0.00095096848461568434
 39 -0.00044364067086652068
 40 0.17030965143125207
 41 0.003843830739535618
 42 0.00025740415580819374
 43 0.00027237520856482258
 44 4.4815514947675e-07
 45 -0.25149815818190935
 46 -0.0059528014599228053
 47 -0.00011588614841649084
 48 9.521861155225588e-05
 49 0.00048754751890934395
 50 0.51477627911845913
 51 0.011682142892599827
 52 -0.0001165447332694006
 53 -0.00069085151242491427
 54 -0.00034919173094656066
 55 -0.37275031069880671
 56 -0.008580192041289297
 57 0.00056717357308782961
 58 0.0002724426434195298
 59 2.0913710085173794e-07
Sym= A
Ene= -25.917901950981506
Spin= Alpha
Occup= 2
 1 -2.7739199356955951e-07
 2 1.2406148892578459e-06
 3 2.3258760003426471e-06
 4 1.8720080322493296e-06
 5 -3.4446230487783307e-07
 6 -6.5954022712598823e-06
 7 -1.1863384527751198e-05
 8 -9.5484683802615072e-06
 9 1.7569322834620738e-06
 10 3.3411190103248582e-05
 11 7.7044863586502726e-05
 12 6.2013888954544176e-05
 13 -1.1409683548895206e-05
 14 9.156224634763015e-05
 15 -0.00048430070987589072
 16 -0.00039011826920849887
 17 7.1717063086186019e-05
 18 0.00023793596552956986
 19 -0.0001899974622261944
 20 -4.1532899062970144e-05
 21 1.8275543037997651e-07
 22 -2.8786019620403367e-07
 23 -7.1789480871097051e-05
 24 -0.0023142703178135778
 25 0.0018320204887938344
 26 0.00039352107984985283
 27 -1.7686878968254648e-06
 28 2.7873303218612298e-06
 29 0.00069557585079651823
 30 -0.029973855034969136
 31 -0.00058641068736778258
 32 2.0192164366488613e-05
 33 1.8942168260338425e-05
 34 -1.0347503873828906e-05
 35 -0.50734939223740461
 36 -0.010548346026251449
 37 2.0221119765273282e-05
 38 -0.00043281304391407571
 39 -0.00016618938795426465
 40 0.46676688948003348
 41 0.0095051638205666013
 42 0.00036995511311359482
 43 1.6509645769820214e-05
 44 -3.3625043709271504e-06
 45 -0.068917653442097063
 46 -0.0014772411763996963
 47 2.0301696687747011e-05
 48 -1.2285259582301111e-05
 49 7.558968898638903e-05
 50 -0.44079686200436252
 51 -0.0090257945726996188
 52 2.0192596684254726e-05
 53 0.00034355067128691037
 54 0.00011597221362528607
 55 0.56100103117261746
 56 0.011661048118768277
 57 -0.00051303070932616534
 58 1.5987639425409073e-05
 59 -2.52561657535404e-06
Sym= A
Ene= -25.91787024883001
Spin= Alpha
Occup= 2
 1 9.0308468155795045e-07
 2 -4.0274136963457151e-06
 3 -9.2390850549420095e-07
 4 -2.5373640018518193e-06
 5 9.8814150038999474e-06
 6 2.1397712003831204e-05
 7 4.7124853519010627e-06
 8 1.2942233309149506e-05
 9 -5.0401677550514223e-05
 10 -0.00010825733073178468
 11 -3.0604504825469669e-05
 12 -8.4055294109644171e-05
 13 0.00032733927523319328
 14 -0.00029455639739488346
 15 0.00019234955147111278
 16 0.00052872954141362609
 17 -0.0020590331583216076
 18 -0.00011198610853834434
 19 -0.00010512847976315305
 20 0.00019638971250095398
 21 -1.8469514017027067e-07
 22 4.6036460155811561e-07
 23 -0.00014574001040274512
 24 0.0011138172279892672
 25 0.0010473852143428445
 26 -0.0018740500361045024
 27 1.7798043066213313e-06
 28 -4.4378309684543974e-06
 29 0.0014120843848903831
 30 0.351045312039513
 31 0.0068127677346749797
 32 -7.9285528291863283e-06
 33 -5.2899266823932221e-05
 34 0.0001708256028669225
 35 -0.32565896356639407
 36 -0.0067202791386741893
 37 -8.0050620102002537e-06
 38 -0.00029828075981705882
 39 -1.4526006893248941e-05
 40 -0.20114301108938101
 41 -0.0040647855668034397
 42 -0.00015201012483176748
 43 -2.2147874884420637e-05
 44 8.6015966860228648e-05
 45 0.76250770433777293
 46 0.016226079539394419
 47 -9.2133070806365213e-06
 48 0.00028240485273821076
 49 -0.0007521614900470085
 50 -0.28558845500762398
 51 -0.0058033631087316719
 52 -8.0233184334410341e-06
 53 0.0001807545425355668
 54 0.0001595825764315001
 55 -0.23911721706287503
 56 -0.0049332396734724851
 57 0.00020973384698068668
 58 -2.1931268156490601e-05
 59 8.5658106882222649e-05
Sym= A
Ene= -18.563847404392746
Spin= Alpha
Occup= 2
 1 0.19287744461176437
 2 -0.60940258932575253
 3 1.1669203852960407e-06
 4 -7.7300418300891664e-08
 5 1.1791412617020535e-07
 6 2.3774974486888913
 7 -4.3377378882284035e-06
 8 2.8237231329720425e-07
 9 -4.3172053171515508e-07
 10 0.18326252457694842
 11 -3.9139568909080146e-07
 12 1.2490681767088474e-07
 13 -1.7600259760024533e-07
 14 0.042540491380476234
 15 5.2893014803123108e-07
 16 -4.8296369801451423e-07
 17 7.4993938603099077e-07
 18 -0.58524575316528638
 19 -0.58524565551057595
 20 -0.58524566979326953
 21 -3.5853620235133933e-08
 22 -1.341215616246579e-07
 23 -6.4569917452747718e-08
 24 -0.061907610959035526
 25 -0.061907756103952681
 26 -0.061907637618698726
 27 1.461137448977203e-08
 28 -5.9686182837682227e-09
 29 -4.353920210455753e-08
 30 0.00012293735220150889
 31 -0.0017946912678069083
 32 1.0668557457877243e-06
 33 -0.00030593477455683003
 34 0.00084221899958220395
 35 0.00012305084693329084
 36 -0.0017953543621019423
 37 -5.1006635080907476e-08
 38 0.0008415737741069608
 39 0.00030577822614780061
 40 0.00012300115707633086
 41 -0.001795057199789056
 42 0.0008956367801216409
 43 5.966265906311984e-07
 44 -9.3667363596796303e-07
 45 0.00012316448899942173
 46 -0.0017960102685379614
 47 -1.1328065190672485e-06
 48 0.0003055008566593782
 49 -0.00084088613857712623
 50 0.00012300814689734582
 51 -0.0017951042991395732
 52 5.4681096472265247e-08
 53 -0.00084175838319080695
 54 -0.00030599334976447613
 55 0.00012311209108727041
 56 -0.001795707353309358
 57 -0.00089500132372372608
 58 -4.6146607082825899e-07
 59 8.044034588264398e-07
Sym= A
Ene= -15.583518253888611
Spin= Alpha
Occup= 2
 1 8.4072807147325862e-07
 2 -2.6576394769842508e-06
 3 -0.076030529923031984
 4 -0.033530745905841139
 5 0.098240692869223392
 6 1.0278074377276775e-05
 7 0.28330424356920048
 8 0.12494194822205791
 9 -0.36606353943694292
 10 1.0447932533221005e-06
 11 0.025337619443011786
 12 0.011174334070640807
 13 -0.032739363014547912
 14 3.3990447002358884e-07
 15 -0.010527954618686788
 16 -0.0046430615767681319
 17 0.013603715737155894
 18 -4.56468010939935e-06
 19 -1.6279000216514353e-06
 20 -1.2880800121542086e-06
 21 -6.0341885530669773e-07
 22 1.9517311931265038e-06
 23 -2.2237177243613948e-07
 24 -3.590213962777082e-07
 25 -2.8977915153516138e-07
 26 -5.2051106305321213e-07
 27 -6.7008651002794778e-09
 28 1.4437305571712346e-07
 29 5.362503284962356e-08
 30 -0.00034140658690495936
 31 0.00290994727635124
 32 0.00036926025989164949
 33 -0.00018009570306414037
 34 0.0004670369279076807
 35 -6.7132375779567802e-06
 36 5.7231151390015414e-05
 37 0.0003679980906335493
 38 0.00018082510225167183
 39 -0.0004687749609904421
 40 0.00025074943676615773
 41 -0.0021369456432280796
 42 -0.00036860416043751209
 43 0.0001618257121341077
 44 -0.00047477295246592377
 45 0.00034153229449416719
 46 -0.0029096134477170389
 47 0.00036919166855511876
 48 -0.00018039100039619066
 49 0.00046775936060306552
 50 6.7690425510340962e-06
 51 -5.7656079831131782e-05
 52 0.00036801791342407921
 53 0.00018099973064899226
 54 -0.00046873785837916993
 55 -0.00025074986410148978
 56 0.002136483326248155
 57 -0.00036875895735161742
 58 0.00016188396110936455
 59 -0.00047478087197006641
Sym= A
Ene= -15.58351631896625
Spin= Alpha
Occup= 2
 1 -8.6078914252457881e-07
 2 2.7235940230195365e-06
 3 0.054841118638549152
 4 -0.11636670705686408
 5 0.0027253131355482198
 6 -1.0543713945306697e-05
 7 -0.20434846014202993
 8 0.43360452470559763
 9 -0.010155036297881184
 10 -3.8569630312063761e-07
 11 -0.018276109840542308
 12 0.038779943274032849
 13 -0.00090821745271038763
 14 3.5069130363330577e-08
 15 0.007593719608414917
 16 -0.016113501421399605
 17 0.00037727550343674292
 18 3.8275722888641022e-06
 19 2.0524476685627134e-06
 20 1.7764754231988132e-06
 21 -2.5801659094652762e-06
 22 1.5165863891195557e-07
 23 -2.7753849325777443e-07
 24 1.3910094594222358e-07
 25 1.1840423018836773e-08
 26 -6.0723235927277897e-08
 27 -2.181059715515305e-07
 28 7.7909624241807578e-08
 29 -4.8955493137910509e-08
 30 -0.00013946477175261034
 31 0.0011887050398590136
 32 -0.00026497034138923877
 33 0.0004234477412241363
 34 0.0003718792680721723
 35 0.00035709368010906038
 36 -0.0030430033124610109
 37 -0.0002653924230296091
 38 -0.00042274609021267006
 39 -0.00037148614916274214
 40 -0.00018031470937645514
 41 0.0015366917447451368
 42 0.00026426629804209982
 43 0.00056358988873640205
 44 -1.3719690589604333e-05
 45 0.00013952671521486309
 46 -0.001188708480679479
 47 -0.00026487289765064493
 48 0.00042314895026108882
 49 0.00037211749123256042
 50 -0.00035707339926295024
 51 0.003043058701708172
 52 -0.00026536306227366362
 53 -0.00042260854312557738
 54 -0.00037151498662093635
 55 0.00018039063026179577
 56 -0.0015370057638124449
 57 0.00026458226470117122
 58 0.00056347473004234223
 59 -1.368070710951219e-05
Sym= A
Ene= -15.58351578018347
Spin= Alpha
Occup= 2
 1 1.2703439523566156e-06
 2 -4.01742065097556e-06
 3 -0.088136234586644699
 4 -0.043481768737963722
 5 -0.083051331074637885
 6 1.554017414464621e-05
 7 0.32841240146409617
 8 0.16202135265524836
 9 0.30946507886559826
 10 8.7337628591519986e-07
 11 0.02937209113567011
 12 0.014490680043271371
 13 0.027677577111671587
 14 3.0961263118946289e-07
 15 -0.012205315778053711
 16 -0.0060217097301779885
 17 -0.01150146990896587
 18 -5.9441739687468664e-06
 19 -2.4315178598475861e-06
 20 -2.9082180591555042e-06
 21 -8.2025022711200463e-07
 22 -1.9227051036188357e-06
 23 2.2851718583729984e-08
 24 -3.4680906219579607e-07
 25 -2.1057546649378155e-07
 26 -1.5136335125036915e-07
 27 2.7888047114768282e-08
 28 -2.4459646709480221e-07
 29 -3.9035501524252086e-08
 30 0.00020852884958386716
 31 -0.001777283511504503
 32 0.00042594973171564457
 33 0.0004196771849890521
 34 -0.00017366656112315383
 35 0.00022802178906838975
 36 -0.0019430067874605592
 37 0.00042666305520281029
 38 -0.00041913070225571244
 39 0.00017323288190599956
 40 0.00029007416566142682
 41 -0.0024719817154327493
 42 -0.00042551755876804273
 43 0.00020995193802000341
 44 0.00040290331072919587
 45 -0.0002085839661997756
 46 0.0017769778361304452
 47 0.00042579470502046492
 48 0.00041972107030255139
 49 -0.00017407395893099937
 50 -0.00022799213731555714
 51 0.0019429524983134508
 52 0.00042671329902203544
 53 -0.00041899564731087046
 54 0.00017325429237803993
 55 -0.00029011794831133517
 56 0.0024718538465562205
 57 -0.00042580477502514172
 58 0.00021001248452027989
 59 0.00040279647898891382
Sym= A
Ene= -9.1602473381523826
Spin= Alpha
Occup= 2
 1 -1.3939626250973517e-08
 2 4.4709144669523985e-08
 3 3.1011518720696851e-07
 4 1.1612964049103964e-08
 5 -3.0242839982797995e-08
 6 -1.806004547365394e-07
 7 -1.2120196322919156e-06
 8 -3.9768302756824944e-08
 9 1.0369972070503555e-07
 10 -1.3530511966923463e-08
 11 -3.3395552696169472e-07
 12 -1.4198883903649975e-07
 13 3.737073756164685e-07
 14 6.1832672066948515e-08
 15 2.0594479559841338e-06
 16 1.8359681415540267e-06
 17 -4.9350142675672956e-06
 18 -0.78849846906124188
 19 -0.00097937405402780987
 20 0.78947797811421561
 21 -0.0008387668959233557
 22 0.0017383337437430939
 23 -0.38199530371152945
 24 -0.055522332948092917
 25 -6.9059949123695603e-05
 26 0.055591444577248801
 27 -5.9707320721917282e-05
 28 0.00012419168335820496
 29 -0.026898512067181215
 30 0.0011986422938046934
 31 -0.0068055262295367881
 32 -6.4954352939608713e-06
 33 0.0015530235091264851
 34 -0.0042753893864048587
 35 -0.00015958805785375873
 36 0.00090598322526857307
 37 -4.123229435605653e-07
 38 0.00056909173407402626
 39 0.00020724316605470451
 40 -0.0010387338172556976
 41 0.0058971485334786949
 42 0.0039419601567244038
 43 2.7082979044418996e-06
 44 -4.3956746752919746e-06
 45 0.0011976536114672626
 46 -0.0067981495572583279
 47 6.455231540478024e-06
 48 -0.001552097831356093
 49 0.0042721717863063776
 50 -0.00015959878029241282
 51 0.00090606738696855419
 52 2.1367902022353187e-07
 53 -0.00056920827122368921
 54 -0.00020706033907119943
 55 -0.0010383475075815187
 56 0.0058942762193348545
 57 -0.0039406908035789709
 58 -2.1953499117057477e-06
 59 4.1707748065679841e-06
Sym= A
Ene= -9.1602430273495941
Spin= Alpha
Occup= 2
 1 2.1062173238509892e-08
 2 -6.4285450872369464e-08
 3 2.4146764293390954e-07
 4 1.5834907527718112e-09
 5 2.4448269843782291e-08
 6 1.7884688964750534e-07
 7 -9.4829697124869206e-07
 8 -3.5225948676533894e-09
 9 -9.1028557032332778e-08
 10 -4.6874820908466568e-07
 11 -1.2932983733459326e-07
 12 -6.2634152742274611e-08
 13 -1.0458475223070497e-07
 14 7.57869058769407e-07
 15 1.0450431214505559e-06
 16 4.0541454400627577e-07
 17 2.2884203193998068e-06
 18 -0.59514268974452389
 19 0.82116185525859464
 20 -0.22601919440384211
 21 -0.00047423845716115576
 22 0.00038463910121749878
 23 0.50616540140359345
 24 -0.041907550907999233
 25 0.057823241493136113
 26 -0.015915297039123453
 27 -3.2472017069728467e-05
 28 2.5903474974128956e-05
 29 0.035642677927999168
 30 -0.00050766914240410205
 31 0.0028823504300675307
 32 2.7279249162215973e-06
 33 -0.00065763687876502479
 34 0.0018108697347361067
 35 0.0012913844435919748
 36 -0.0073311515437836684
 37 -3.9970992344023252e-07
 38 -0.00460618301549056
 39 -0.0016740208724360874
 40 -0.00078398563838433754
 41 0.0044508284589284911
 42 0.0029752530480709645
 43 2.03969032603272e-06
 44 -2.5792064258531936e-06
 45 -0.00050726227516006907
 46 0.0028793243007372835
 47 -2.8070723256667827e-06
 48 0.00065723259125445295
 49 -0.0018095474708196418
 50 0.0012915800226874705
 51 -0.0073326050978304632
 52 -2.1201597918743874e-07