[Molden Format]
[Title]
generated by GANSU
[Atoms] (Angs)
C 1 6 0 1.253 1.395
C 2 6 0 2.421 0.713
C 3 6 0 2.421 -0.713
C 4 6 0 1.253 -1.395
C 5 6 0 -1.253 -1.395
C 6 6 0 -2.421 -0.713
C 7 6 0 -2.421 0.713
C 8 6 0 -1.253 1.395
C 9 6 0 0 0.702
C 10 6 0 0 -0.702
H 11 1 0 1.244 2.478
H 12 1 0 3.367 1.24
H 13 1 0 3.367 -1.24
H 14 1 0 1.244 -2.478
H 15 1 0 -1.244 -2.478
H 16 1 0 -3.367 -1.24
H 17 1 0 -3.367 1.24
H 18 1 0 -1.244 2.478
[GTO]
1 0
 s 3 1.00
    13.0451 0.535328
    3.53051 0.444635
    71.6168 0.154329
 s 3 1.00
    2.94125 -0.0999672
    0.683483 0.399513
    0.22229 0.700115
 p 3 1.00
    2.94125 0.155916
    0.22229 0.391957
    0.683483 0.607684

2 0
 s 3 1.00
    71.6168 0.154329
    3.53051 0.444635
    13.0451 0.535328
 s 3 1.00
    2.94125 -0.0999672
    0.683483 0.399513
    0.22229 0.700115
 p 3 1.00
    0.683483 0.607684
    0.22229 0.391957
    2.94125 0.155916

3 0
 s 3 1.00
    3.53051 0.444635
    13.0451 0.535328
    71.6168 0.154329
 s 3 1.00
    2.94125 -0.0999672
    0.683483 0.399513
    0.22229 0.700115
 p 3 1.00
    2.94125 0.155916
    0.683483 0.607684
    0.22229 0.391957

4 0
 s 3 1.00
    71.6168 0.154329
    13.0451 0.535328
    3.53051 0.444635
 s 3 1.00
    0.22229 0.700115
    0.683483 0.399513
    2.94125 -0.0999672
 p 3 1.00
    2.94125 0.155916
    0.683483 0.607684
    0.22229 0.391957

5 0
 s 3 1.00
    3.53051 0.444635
    13.0451 0.535328
    71.6168 0.154329
 s 3 1.00
    0.22229 0.700115
    0.683483 0.399513
    2.94125 -0.0999672
 p 3 1.00
    0.683483 0.607684
    2.94125 0.155916
    0.22229 0.391957

6 0
 s 3 1.00
    3.53051 0.444635
    13.0451 0.535328
    71.6168 0.154329
 s 3 1.00
    2.94125 -0.0999672
    0.683483 0.399513
    0.22229 0.700115
 p 3 1.00
    2.94125 0.155916
    0.683483 0.607684
    0.22229 0.391957

7 0
 s 3 1.00
    3.53051 0.444635
    13.0451 0.535328
    71.6168 0.154329
 s 3 1.00
    0.22229 0.700115
    0.683483 0.399513
    2.94125 -0.0999672
 p 3 1.00
    2.94125 0.155916
    0.683483 0.607684
    0.22229 0.391957

8 0
 s 3 1.00
    3.53051 0.444635
    13.0451 0.535328
    71.6168 0.154329
 s 3 1.00
    2.94125 -0.0999672
    0.683483 0.399513
    0.22229 0.700115
 p 3 1.00
    2.94125 0.155916
    0.683483 0.607684
    0.22229 0.391957

9 0
 s 3 1.00
    3.53051 0.444635
    13.0451 0.535328
    71.6168 0.154329
 s 3 1.00
    2.94125 -0.0999672
    0.22229 0.700115
    0.683483 0.399513
 p 3 1.00
    2.94125 0.155916
    0.683483 0.607684
    0.22229 0.391957

10 0
 s 3 1.00
    3.53051 0.444635
    13.0451 0.535328
    71.6168 0.154329
 s 3 1.00
    0.683483 0.399513
    2.94125 -0.0999672
    0.22229 0.700115
 p 3 1.00
    0.22229 0.391957
    2.94125 0.155916
    0.683483 0.607684

11 0
 s 3 1.00
    3.42525 0.154329
    0.623914 0.535328
    0.168855 0.444635

12 0
 s 3 1.00
    3.42525 0.154329
    0.623914 0.535328
    0.168855 0.444635

13 0
 s 3 1.00
    3.42525 0.154329
    0.168855 0.444635
    0.623914 0.535328

14 0
 s 3 1.00
    0.168855 0.444635
    0.623914 0.535328
    3.42525 0.154329

15 0
 s 3 1.00
    3.42525 0.154329
    0.168855 0.444635
    0.623914 0.535328

16 0
 s 3 1.00
    3.42525 0.154329
    0.623914 0.535328
    0.168855 0.444635

17 0
 s 3 1.00
    0.623914 0.535328
    0.168855 0.444635
    3.42525 0.154329

18 0
 s 3 1.00
    3.42525 0.154329
    0.168855 0.444635
    0.623914 0.535328

[MO]
Sym= A
Ene= -11.0386
Spin= Alpha
Occup= 2
 1 0.00015556799891347506
 2 0.0045722288697851868
 3 5.1965378267734794e-17
 4 -0.0022851285764577747
 5 -0.001314868423298149
 6 0.0047286418599572499
 7 3.981066741838438e-05
 8 -1.6443118118014851e-16
 9 -7.7889267888157226e-05
 10 -5.848295146668181e-05
 11 0.0047286418604056413
 12 3.9810667524868212e-05
 13 5.3333815771420763e-16
 14 -7.7889267934293932e-05
 15 5.8482951493077362e-05
 16 0.00015556800056579223
 17 0.0045722288678501227
 18 1.3023574762660695e-16
 19 -0.0022851285755105602
 20 0.0013148684227769544
 21 0.00015556800008778571
 22 0.0045722288678340644
 23 9.161640058830047e-17
 24 0.0022851285755096512
 25 0.0013148684227766876
 26 0.0047286418601754088
 27 3.9810667520098156e-05
 28 1.0840320575902122e-16
 29 7.7889267935535127e-05
 30 5.8482951492168367e-05
 31 0.004728641859977567
 32 3.9810667423041245e-05
 33 9.9451019942070968e-17
 34 7.7889267889427044e-05
 35 -5.8482951466813649e-05
 36 0.00015556799860810822
 37 0.004572228869774265
 38 3.4436720288477738e-16
 39 0.002285128576458538
 40 -0.0013148684232976177
 41 -0.70178981917151639
 42 -0.02081367636585138
 43 6.5741043215513692e-16
 44 -1.0210268062927069e-15
 45 -0.0024218179900878795
 46 -0.70178981888842507
 47 -0.020813676353385074
 48 -1.7262159484307125e-16
 49 -2.0084143109759147e-15
 50 0.0024218179913011485
 51 1.1836827896554575e-05
 52 5.8050744468221473e-05
 53 5.8050744461181749e-05
 54 1.1836827928723287e-05
 55 1.1836827931547417e-05
 56 5.8050744462483659e-05
 57 5.8050744467901851e-05
 58 1.183682789821644e-05
Sym= A
Ene= -11.038372603440878
Spin= Alpha
Occup= 2
 1 0.0037440046118638881
 2 -0.0048052455887536774
 3 1.956452377979999e-16
 4 0.0023481059585535981
 5 0.0012909194415916146
 6 0.00092332354844912312
 7 0.00025984002972423773
 8 -7.1720868468957999e-16
 9 -0.00011380955418770905
 10 -6.4185399654165254e-05
 11 -0.00092332354626216417
 12 -0.00025984002970350084
 13 8.1790482239587831e-16
 14 0.00011380955415759772
 15 -6.418539963060077e-05
 16 -0.0037440046112706404
 17 0.0048052455906172041
 18 6.9381240040215566e-17
 19 -0.002348105959477001
 20 0.0012909194421221442
 21 -0.0037440046117000747
 22 0.0048052455906074385
 23 -1.2144014731318515e-16
 24 0.0023481059594742323
 25 0.0012909194421233021
 26 -0.00092332354703485164
 27 -0.00025984002972831433
 28 3.0235002170060378e-16
 29 -0.00011380955415722996
 30 -6.4185399630985879e-05
 31 0.00092332354838255137
 32 0.00025984002972766207
 33 1.3383859587698927e-16
 34 0.0001138095541878513
 35 -6.4185399656644174e-05
 36 0.0037440046117747927
 37 -0.0048052455887567635
 38 5.1284396154331115e-16
 39 -0.0023481059585537751
 40 0.0012909194415918106
 41 0.70122106959030384
 42 0.030881243160951852
 43 8.8684050150739874e-16
 44 -5.301866095228605e-16
 45 -0.0030047418963990991
 46 -0.70122106987362653
 47 -0.03088124316935846
 48 -3.0077552047120372e-16
 49 -1.7701188009179997e-15
 50 -0.0030047418954205624
 51 8.2498482107246779e-05
 52 -1.7665128421811421e-05
 53 1.766512844314852e-05
 54 -8.2498482106400234e-05
 55 -8.2498482103683657e-05
 56 1.7665128448439427e-05
 57 -1.7665128421294474e-05
 58 8.2498482107319637e-05
Sym= A
Ene= -11.029675567526198
Spin= Alpha
Occup= 2
 1 -0.12479933623163852
 2 -0.0010273534453930817
 3 1.4651178490446925e-16
 4 0.0015767866307769482
 5 -0.00086140206350171673
 6 -0.48042526225977222
 7 -0.013518653719494608
 8 -7.7301436021137875e-17
 9 6.5325133994446807e-05
 10 -0.0015442042927120564
 11 -0.48042526299673094
 12 -0.01351865374993648
 13 -1.8762386831462823e-16
 14 6.5325134194468663e-05
 15 0.0015442042894137226
 16 -0.12479933646094628
 17 -0.0010273534479384762
 18 -4.1336092042637903e-16
 19 0.0015767866331917665
 20 0.0008614020647429825
 21 0.12479933662376377
 22 0.0010273534477981787
 23 -9.2952719320120244e-17
 24 0.001576786635588065
 25 -0.00086140206634422074
 26 0.48042526379725603
 27 0.013518653768863256
 28 1.5085070338979758e-17
 29 6.5325134339509761e-05
 30 -0.001544204294258604
 31 0.48042526363649013
 32 0.013518653762157648
 33 -8.002403393087134e-17
 34 6.5325134266454917e-05
 35 0.001544204294966621
 36 0.12479933657883897
 37 0.0010273534474835033
 38 1.6913494331353159e-16
 39 0.0015767866350515358
 40 0.00086140206604231814
 41 7.1386481059879271e-12
 42 -1.8324994667844561e-12
 43 -5.5771938328352232e-16
 44 0.0010095594378330282
 45 -3.8032683022473775e-13
 46 8.0658424913226865e-12
 47 -6.8767128464237772e-13
 48 5.575415852969727e-16
 49 0.0010095594386050353
 50 8.2821280314883199e-14
 51 0.00084047506556166746
 52 0.0032757213118527195
 53 0.0032757213169473248
 54 0.00084047506697834673
 55 -0.00084047506816205958
 56 -0.0032757213223868209
 57 -0.0032757213212737113
 58 -0.00084047506791020549
Sym= A
Ene= -11.029665809848098
Spin= Alpha
Occup= 2
 1 0.11472059282013294
 2 0.00049045965116438495
 3 2.9417081498483223e-18
 4 -0.0014784930811716154
 5 0.00091788993210371699
 6 0.48291067454917691
 7 0.013648817629969195
 8 1.3057581847067185e-16
 9 -8.6893310640828378e-05
 10 0.0015716376496969567
 11 0.48291067567309925
 12 0.013648817676267411
 13 -8.8592083245626344e-17
 14 -8.6893310892054501e-05
 15 -0.0015716376446385412
 16 0.11472059318470339
 17 0.00049045965561964056
 18 -2.9234592074515885e-17
 19 -0.0014784930848473696
 20 -0.00091788993396760624
 21 0.11472059272136824
 22 0.00049045965090935978
 23 1.8800072321949732e-16
 24 0.0014784930795495657
 25 -0.00091788993112942863
 26 0.48291067405644744
 27 0.01364881762384218
 28 -1.4364243869414614e-16
 29 8.689331064592673e-05
 30 -0.0015716376435849812
 31 0.48291067400262344
 32 0.013648817621561143
 33 -3.6278224108884769e-17
 34 8.6893310610687557e-05
 35 0.0015716376438070605
 36 0.11472059271652256
 37 0.00049045965106507203
 38 -4.8665616532873156e-17
 39 0.0014784930793728737
 40 0.00091788993106733247
 41 0.0068736921041162719
 42 -0.0011349478697645875
 43 -4.7379437477501633e-16
 44 -6.3098315954147909e-13
 45 -0.0002105897614819302
 46 0.0068736921007887669
 47 -0.00113494787211596
 48 4.4119282877322136e-16
 49 -1.6588819190618972e-12
 50 0.00021058976207057045
 51 -0.00079476229543715485
 52 -0.0032960360359362353
 53 -0.0032960360437015376
 54 -0.00079476229770713419
 55 -0.00079476229469262194
 56 -0.0032960360326305324
 57 -0.0032960360322573726
 58 -0.00079476229463210785
Sym= A
Ene= -11.029646403055997
Spin= Alpha
Occup= 2
 1 -0.16204366693411393
 2 -0.0021843549124864678
 3 3.2715286010135468e-17
 4 0.0015305062565974734
 5 -0.0007844630081674242
 6 -0.46875885978705989
 7 -0.0192469974641854
 8 -1.7529096867785409e-16
 9 8.0273004017935353e-05
 10 0.0021275068167390457
 11 0.46875885878815088
 12 0.019246997436167371
 13 4.0776703881627128e-16
 14 -8.0273003932417389e-05
 15 0.0021275068199296809
 16 0.16204366666561765
 17 0.002184354910186509
 18 7.7350051847329008e-17
 19 -0.0015305062534502097
 20 -0.00078446300633531335
 21 -0.16204366687581395
 22 -0.002184354911867227
 23 2.8910643173968134e-16
 24 -0.0015305062558829963
 25 0.00078446300774822481
 26 -0.4687588595674293
 27 -0.019246997461139746
 28 4.9354272256973573e-17
 29 -8.0273004060058776e-05
 30 -0.0021275068191980717
 31 0.46875885947044127
 32 0.019246997458293103
 33 3.1093938282839963e-16
 34 8.0273004000585516e-05
 35 -0.0021275068195453842
 36 0.16204366686937804
 37 0.0021843549125146813
 38 -1.5929073866611405e-17
 39 0.0015305062556814561
 40 0.00078446300750908277
 41 -4.7129650231773501e-12
 42 2.2011573873378114e-13
 43 3.7830507948837689e-16
 44 0.00093061251427133118
 45 1.7968574042429953e-14
 46 -2.8960954606934848e-12
 47 1.1685176885123255e-12
 48 1.884639507933787e-17
 49 -0.00093061251322897054
 50 -2.4749791753282889e-13
 51 0.00099866617201259172
 52 0.0032370052788608383
 53 -0.0032370052720465878
 54 -0.00099866617017536083
 55 0.00099866617158706145
 56 0.0032370052773855601
 57 -0.0032370052767195998
 58 -0.00099866617151885646
Sym= A
Ene= -11.029637557605707
Spin= Alpha
Occup= 2
 1 -0.15601531619341399
 2 -0.0020301077285015678
 3 1.666117993586327e-16
 4 0.0015360950170213335
 5 -0.00075918827494601132
 6 -0.4707937642211692
 7 -0.019351046822520191
 8 -4.7378324444589166e-17
 9 8.5752062682782279e-05
 10 0.0021265318442160105
 11 0.47079376333057493
 12 0.01935104679749218
 13 2.2183109950704013e-18
 14 -8.5752062585546691e-05
 15 0.0021265318470750291
 16 0.15601531596121926
 17 0.002030107726748602
 18 2.2077066948576555e-16
 19 -0.0015360950142378378
 20 -0.0007591882732960048
 21 0.15601531595872881
 22 0.002030107726328105
 23 -3.5054136833422763e-16
 24 0.0015360950144512539
 25 -0.00075918827343837703
 26 0.47079376339446422
 27 0.019351046796338124
 28 1.8078082937818828e-17
 29 8.5752062584013196e-05
 30 0.0021265318451012816
 31 -0.47079376370075876
 32 -0.019351046804975361
 33 2.1423582687301312e-16
 34 -8.5752062625306553e-05
 35 0.0021265318441071046
 36 -0.15601531603221536
 37 -0.0020301077265790154
 38 -3.310536616635945e-17
 39 -0.0015360950153199618
 40 -0.00075918827404670985
 41 0.0026502099976484826
 42 0.0019979519921335676
 43 -5.0735031920068136e-17
 44 5.5504932790216818e-13
 45 0.00049884402526943414
 46 -0.0026502100062340203
 47 -0.0019979519905891259
 48 -5.9462084529529276e-17
 49 8.2251788678495891e-14
 50 0.00049884402497045802
 51 0.00098919696711705736
 52 0.0032518158645140904
 53 -0.0032518158584377566
 54 -0.00098919696552210033
 55 -0.0009891969655505678
 56 -0.0032518158588536877
 57 0.0032518158609460834
 58 0.00098919696607649779
Sym= A
Ene= -11.028594099913184
Spin= Alpha
Occup= 2
 1 -0.46884939789881341
 2 -0.018487201286451885
 3 -1.559454313765685e-16
 4 -0.00081512223113698948
 5 0.00086184103840987805
 6 0.16168802624344797
 7 0.01080525687192611
 8 2.014998903883961e-16
 9 -0.0017590693367686983
 10 0.00025945981742383221
 11 -0.16168802598696314
 12 -0.010805256857400048
 13 -3.4557144248059338e-16
 14 0.0017590693333271179
 15 0.00025945981466217612
 16 0.46884939698628991
 17 0.018487201251081761
 18 1.3303498030088053e-17
 19 0.00081512222979675947
 20 0.00086184103711440738
 21 -0.4688493970051405
 22 -0.018487201251697116
 23 2.2656116940982847e-16
 24 0.0008151222298004579
 25 -0.00086184103707464405
 26 0.16168802598370208
 27 0.01080525685687694
 28 -2.3780471174544308e-16
 29 0.00175906933340296
 30 -0.00025945981497891391
 31 -0.16168802617189701
 32 -0.01080525686748305
 33 -2.034322686694802e-16
 34 -0.0017590693358900678
 35 -0.00025945981700355994
 36 0.46884939767135048
 37 0.018487201277447643
 38 -1.3497149889993655e-16
 39 -0.00081512223079112378
 40 -0.00086184103803272835
 41 5.0577466763259112e-13
 42 1.5858857793493413e-12
 43 -7.2391210671691354e-17
 44 0.0031565727176642022
 45 4.0216442693027776e-13
 46 -2.6640073088109862e-13
 47 4.9253088653648951e-14
 48 -3.2207770095453937e-16
 49 -0.0031565727123559484
 50 -5.0174584373674308e-14
 51 0.0032090025688152057
 52 -0.0012296512014921858
 53 0.0012296511997199923
 54 -0.0032090025625015062
 55 0.0032090025626429486
 56 -0.0012296511996686757
 57 0.0012296512009757829
 58 -0.0032090025672174838
Sym= A
Ene= -11.028573659263618
Spin= Alpha
Occup= 2
 1 0.47088125945590348
 2 0.018830243952469045
 3 -8.7124570479638365e-17
 4 0.00072631084400009288
 5 -0.00091430172764125558
 6 -0.15566287612734195
 7 -0.010629716367179631
 8 -1.2515249231673205e-16
 9 0.0017939447292422625
 10 -0.00028627736182181007
 11 0.15566287581756325
 12 0.010629716348996184
 13 -5.4802306403631255e-17
 14 -0.0017939447247685633
 15 -0.00028627735833462037
 16 -0.47088125827322885
 17 -0.018830243906687763
 18 6.0496081057832165e-17
 19 -0.00072631084235147414
 20 -0.00091430172602575965
 21 -0.47088125909882728
 22 -0.01883024393859984
 23 -3.3268732917308915e-16
 24 0.00072631084354034953
 25 -0.00091430172721362543
 26 0.15566287604000284
 27 0.010629716362334025
 28 1.6693260536092049e-16
 29 0.0017939447278499873
 30 -0.00028627736054300836
 31 -0.15566287597008754
 32 -0.010629716358378845
 33 6.9130053348448294e-17
 34 -0.0017939447269451417
 35 -0.00028627735976213516
 36 0.47088125884219317
 37 0.018830243928848529
 38 1.2552879351575989e-16
 39 -0.00072631084315194494
 40 -0.00091430172682640046
 41 -0.003811086509092898
 42 -0.006940234565752941
 43 8.4552331449672072e-17
 44 -2.0659194427577823e-12
 45 -0.0015870746004125538
 46 0.0038110865084300949
 47 0.006940234559617153
 48 -4.8424299478272366e-17
 49 -2.7779897432279889e-12
 50 -0.0015870745987159873
 51 -0.003285208819160057
 52 0.0011877815420091725
 53 -0.0011877815398752432
 54 0.0032852088109264575
 55 0.0032852088166135055
 56 -0.0011877815414412926
 57 0.0011877815409437626
 58 -0.0032852088149214198
Sym= A
Ene= -11.028564234879269
Spin= Alpha
Occup= 2
 1 -0.48013356451138206
 2 -0.018509106509680552
 3 1.6505147940879475e-16
 4 -0.00067198430665194389
 5 0.00066371467666272166
 6 0.12451042210475589
 7 0.0073202401901571075
 8 -4.3279291484731631e-16
 9 -0.0017919875180757959
 10 0.0014157012118874296
 11 0.12451042258971559
 12 0.0073202402233151324
 13 3.8943156188048013e-16
 14 -0.0017919875236724406
 15 -0.0014157012128182545
 16 -0.48013356599839185
 17 -0.018509106568566337
 18 1.1084207909483315e-17
 19 -0.00067198430903783746
 20 -0.00066371467943246443
 21 0.48013356522619355
 22 0.018509106537781164
 23 -3.3571570666575168e-16
 24 -0.00067198430786483132
 25 0.00066371467797871758
 26 -0.12451042234151925
 27 -0.0073202402064716579
 28 1.9047824144502378e-16
 29 -0.0017919875207311614
 30 0.0014157012121812987
 31 -0.12451042231733989
 32 -0.0073202402049507218
 33 3.993611910868492e-17
 34 -0.0017919875205166212
 35 -0.0014157012121387737
 36 0.48013356515440736
 37 0.018509106535429802
 38 3.2577276591893634e-16
 39 -0.00067198430763916114
 40 -0.00066371467794180267
 41 -2.9677159870783696e-12
 42 -4.788352426123792e-12
 43 5.1012097340037578e-16
 44 0.0032325490212921498
 45 -1.0753309596698373e-12
 46 2.5630377598538014e-12
 47 5.630190791556988e-12
 48 -1.4601608497221264e-16
 49 0.0032325490265346646
 50 -1.310870904272842e-12
 51 0.0033109411711356451
 52 -0.00086297194528477811
 53 -0.00086297194898973806
 54 0.0033109411814036191
 55 -0.0033109411760117516
 56 0.00086297194710773309
 57 0.00086297194692301626
 58 -0.0033109411756161583
Sym= A
Ene= -11.028530924971813
Spin= Alpha
Occup= 2
 1 0.48266202844441697
 2 0.018696111312669808
 3 1.3127640126106584e-16
 4 0.00062335282736739051
 5 -0.00061800040402803375
 6 -0.1143973050668336
 7 -0.0070967877433918899
 8 -4.3166635534436701e-16
 9 0.0018492099537312347
 10 -0.0013712055256809145
 11 -0.11439730524196656
 12 -0.0070967877557409579
 13 3.1379344345992094e-16
 14 0.0018492099559111732
 15 0.0013712055260989434
 16 0.48266202902467609
 17 0.018696111335654367
 18 3.8876719608194237e-17
 19 0.0006233528282248782
 20 0.00061800040510389537
 21 0.48266202896733013
 22 0.018696111333368765
 23 1.8902374190459755e-16
 24 -0.00062335282811685003
 25 0.00061800040497636891
 26 -0.11439730522045363
 27 -0.0070967877541266624
 28 7.2912571702944177e-17
 29 -0.0018492099557006303
 30 0.0013712055261815305
 31 -0.11439730511516588
 32 -0.0070967877467903373
 33 -9.377717645677645e-18
 34 -0.0018492099544242888
 35 -0.0013712055259582907
 36 0.48266202863313989
 37 0.01869611131996643
 38 1.81669203305185e-16
 39 -0.00062335282763441302
 40 -0.00061800040432182998
 41 -0.00044637153985277456
 42 -0.006385630710699251
 43 5.0770436308888422e-16
 44 6.345614477335123e-13
 45 -0.0017638709407820016
 46 -0.00044637154316334859
 47 -0.0063856307174141322
 48 -2.5470431829856073e-16
 49 -1.9185353775223905e-13
 50 0.0017638709423239557
 51 -0.0034089265187549414
 52 0.00078045434503329
 53 0.00078045434638022299
 54 -0.0034089265227830786
 55 -0.003408926522395413
 56 0.00078045434620295853
 57 0.00078045434539651681
 58 -0.0034089265200484137
Sym= A
Ene= -1.1173198664802773
Spin= Alpha
Occup= 2
 1 0.077116618754218422
 2 -0.19351051098322616
 3 6.1927458571546294e-17
 4 0.010702029738949886
 5 0.038492999059598451
 6 0.06510772305308038
 7 -0.1622759676128126
 8 9.8801731025424249e-17
 9 0.03421060418518037
 10 0.01130450393739336
 11 0.065107723053072233
 12 -0.16227596761279392
 13 -1.052842238492204e-16
 14 0.034210604185171273
 15 -0.01130450393740047
 16 0.077116618754190763
 17 -0.19351051098314911
 18 1.2544750690133741e-16
 19 0.010702029738937715
 20 -0.038492999059590721
 21 0.077116618754197758
 22 -0.19351051098316702
 23 -2.5844293629494362e-17
 24 -0.010702029738936348
 25 -0.038492999059593289
 26 0.065107723053080935
 27 -0.16227596761281782
 28 -1.3604271054932688e-16
 29 -0.034210604185174881
 30 -0.0113045039374019
 31 0.065107723053085625
 32 -0.16227596761282737
 33 -8.4944490126071447e-17
 34 -0.034210604185180113
 35 0.01130450393739639
 36 0.077116618754217756
 37 -0.19351051098322175
 38 -2.4929719416551295e-16
 39 -0.010702029738947436
 40 0.038492999059598895
 41 0.11500566406075899
 42 -0.28945466974259804
 43 -2.2380702878207195e-16
 44 -9.7852538053879219e-16
 45 0.025228553713785073
 46 0.11500566406073562
 47 -0.28945466974253453
 48 6.7321673305778197e-17
 49 4.0560518184001473e-15
 50 -0.025228553713809075
 51 -0.03386440000755718
 52 -0.026919543833352932
 53 -0.026919543833351517
 54 -0.033864400007540887
 55 -0.03386440000754451
 56 -0.026919543833355181
 57 -0.026919543833356346
 58 -0.033864400007556791
Sym= A
Ene= -1.0530679741369335
Spin= Alpha
Occup= 2
 1 0.073456355761288589
 2 -0.18675557447179464
 3 -9.6643196073488926e-16
 4 -0.039157324114844114
 5 0.035926283253528021
 6 0.10355362570846222
 7 -0.26535331544463125
 8 -2.1450917010896058e-16
 9 0.036615056644332351
 10 0.025179757066273043
 11 0.10355362570845358
 12 -0.26535331544461271
 13 6.096630154601316e-16
 14 0.036615056644320958
 15 -0.025179757066280707
 16 0.07345635576126483
 17 -0.18675557447172572
 18 1.6356666877083498e-15
 19 -0.039157324114844606
 20 -0.035926283253522977
 21 -0.073456355761269188
 22 0.1867555744717376
 23 -1.1233914578792331e-15
 24 -0.039157324114848534
 25 0.035926283253523213
 26 -0.10355362570846102
 27 0.26535331544463447
 28 -4.1080544770512755e-16
 29 0.036615056644322484
 30 0.025179757066280117
 31 -0.10355362570846086
 32 0.2653533154446302
 33 1.2718053948344344e-15
 34 0.036615056644324427
 35 -0.025179757066278372
 36 -0.073456355761272824
 37 0.18675557447175095
 38 8.1450908822772435e-16
 39 -0.039157324114849179
 40 -0.035926283253524448
 41 1.0061225592336122e-14
 42 -2.6143327990346883e-14
 43 -6.099851763307589e-16
 44 -0.070519080900362879
 45 -2.5466238444201226e-15
 46 2.5039370705832754e-15
 47 -6.4567181741883529e-15
 48 -2.731071794440365e-16
 49 -0.070519080900347197
 50 -5.3934678810445694e-15
 51 -0.035002443254832385
 52 -0.053200555814564718
 53 -0.053200555814563823
 54 -0.035002443254815441
 55 0.03500244325481755
 56 0.053200555814567452
 57 0.053200555814566494
 58 0.035002443254820548
Sym= A
Ene= -0.98853310583787146
Spin= Alpha
Occup= 2
 1 -0.10375698624973587
 2 0.27564814085304135
 3 -2.8762860630421319e-16
 4 -0.0125866569651984
 5 -0.018020564281078861
 6 -0.048774952009440056
 7 0.12867464834464956
 8 4.4218895453501066e-16
 9 -0.041819655130773674
 10 0.049293155637609304
 11 0.048774952009507586
 12 -0.128674648344831
 13 -1.3188785804239892e-17
 14 0.041819655130780439
 15 0.049293155637585018
 16 0.10375698624974899
 17 -0.27564814085306394
 18 -7.2944809436975112e-18
 19 0.012586656965152885
 20 -0.018020564281099532
 21 0.10375698624974597
 22 -0.27564814085305617
 23 -1.0208696937965735e-16
 24 -0.01258665696515826
 25 -0.018020564281094678
 26 0.0487749520094969
 27 -0.12867464834480458
 28 3.9151178338814576e-17
 29 -0.041819655130780689
 30 0.049293155637591526
 31 -0.048774952009454454
 32 0.12867464834469028
 33 -4.1784591529794707e-16
 34 0.041819655130776054
 35 0.049293155637606438
 36 -0.10375698624973956
 37 0.27564814085304623
 38 9.2617267884579319e-17
 39 0.012586656965191194
 40 -0.018020564281083968
 41 -0.082152867917011901
 42 0.21914326864621175
 43 -8.6455817264553115e-17
 44 -1.870583956613599e-16
 45 0.085855034814423262
 46 0.082152867917001396
 47 -0.21914326864618039
 48 1.1117286106604096e-16
 49 -1.8085935206187756e-16
 50 0.085855034814409231
 51 0.073496082322404677
 52 0.03202969659424653
 53 -0.032029696594291307
 54 -0.073496082322401513
 55 -0.073496082322403497
 56 -0.03202969659428484
 57 0.03202969659425655
 58 0.073496082322405357
Sym= A
Ene= -0.94707376379742314
Spin= Alpha
Occup= 2
 1 -0.0013179355553087279
 2 0.0054068825764914674
 3 -5.6600378238660365e-16
 4 -0.09845224907366254
 5 0.0007227143889447043
 6 0.10038689775372282
 7 -0.27138762371712055
 8 -4.6701724341316068e-17
 9 -0.0089329436813326522
 10 0.040458658929568306
 11 0.10038689775371543
 12 -0.27138762371710412
 13 1.5235639094184197e-16
 14 -0.0089329436813457772
 15 -0.040458658929574912
 16 -0.0013179355553282184
 17 0.0054068825765439402
 18 2.289441058746077e-16
 19 -0.098452249073658821
 20 -0.00072271438894217898
 21 -0.0013179355553566462
 22 0.005406882576621001
 23 -1.2899559522215726e-16
 24 0.098452249073649661
 25 -0.00072271438893654503
 26 0.10038689775369727
 27 -0.27138762371705727
 28 -4.243613252310163e-16
 29 0.0089329436813607582
 30 -0.040458658929593563
 31 0.10038689775373287
 32 -0.27138762371715053
 33 2.7363827851956196e-16
 34 0.008932943681330921
 35 0.040458658929554657
 36 -0.0013179355552945735
 37 0.0054068825764521612
 38 3.5943216441489728e-17
 39 0.098452249073665621
 40 0.00072271438894587481
 41 -0.11143049510250574
 42 0.30293374632674175
 43 -3.4416731758915506e-16
 44 5.8544192818463064e-15
 45 -0.049798433431721738
 46 -0.11143049510252977
 47 0.30293374632680187
 48 -3.520139077704307e-16
 49 -1.3388326599178575e-14
 50 0.049798433431697958
 51 0.0021581123346006638
 52 -0.077690160004954406
 53 -0.077690160004955586
 54 0.0021581123346152749
 55 0.0021581123346376529
 56 -0.077690160004940334
 57 -0.077690160004965869
 58 0.0021581123345905339
Sym= A
Ene= -0.92742147914928141
Spin= Alpha
Occup= 2
 1 -0.10246006832161841
 2 0.27784144900740815
 3 3.0856902078647951e-16
 4 0.047476815512996387
 5 -0.015895568701521683
 6 -0.072157282887230778
 7 0.19425908110053264
 8 3.2582174725180914e-16
 9 -0.049696625783620843
 10 0.074873174649104396
 11 0.072157282887235802
 12 -0.19425908110055104
 13 1.6354797926678266e-16
 14 0.049696625783614709
 15 0.074873174649097388
 16 0.10246006832161014
 17 -0.27784144900737479
 18 -4.9321172770572759e-16
 19 -0.047476815512988949
 20 -0.015895568701533379
 21 -0.10246006832160909
 22 0.27784144900737184
 23 8.9169048601118322e-16
 24 -0.047476815513015372
 25 0.015895568701530999
 26 -0.072157282887256702
 27 0.19425908110061055
 28 1.0179541214378064e-16
 29 0.049696625783613668
 30 -0.074873174649094903
 31 0.072157282887216845
 32 -0.19425908110049922
 33 -2.7109769165042375e-16
 34 -0.049696625783621141
 35 -0.074873174649113028
 36 0.10246006832161555
 37 -0.27784144900739693
 38 -5.3504203104206518e-16
 39 0.04747681551298015
 40 0.01589556870152805
 41 1.3025388157402666e-14
 42 -3.6121012875180333e-14
 43 1.5689946009564134e-16
 44 0.083999822847690434
 45 1.225088313291318e-14
 46 1.6204085888776579e-14
 47 -4.3789205089626709e-14
 48 -1.5558005715269861e-17
 49 -0.083999822847673516
 50 -7.4058044922073525e-15
 51 0.078342569191643438
 52 0.058424108392652503
 53 -0.058424108392661114
 54 -0.078342569191624981
 55 0.078342569191626577
 56 0.058424108392677677
 57 -0.058424108392644683
 58 -0.07834256919163414
Sym= A
Ene= -0.79118075330114745
Spin= Alpha
Occup= 2
 1 0.080500458152718044
 2 -0.23198081726487224
 3 -2.0648610747714812e-16
 4 0.039658711334754876
 5 -0.0060383742735870063
 6 -0.065578830787453607
 7 0.19499721798599026
 8 -4.3418254021599073e-16
 9 0.10633837233828605
 10 -0.084124943127526372
 11 -0.065578830787377224
 12 0.19499721798577035
 13 -2.0026648945202452e-16
 14 0.10633837233830253
 15 0.084124943127613497
 16 0.080500458152731519
 17 -0.23198081726489755
 18 6.2983147859800973e-16
 19 0.039658711334607979
 20 0.0060383742735766049
 21 -0.080500458152731047
 22 0.23198081726489989
 23 -5.6350554129836129e-16
 24 0.039658711334713589
 25 -0.0060383742735806156
 26 0.065578830787430376
 27 -0.19499721798592629
 28 -1.6222711261242136e-16
 29 0.10633837233830452
 30 -0.084124943127554447
 31 0.065578830787394127
 32 -0.19499721798582084
 33 -9.8564968208639334e-17
 34 0.10633837233829974
 35 0.084124943127592666
 36 -0.080500458152724885
 37 0.23198081726488456
 38 9.3407281206515788e-16
 39 0.039658711334632425
 40 0.0060383742735839463
 41 3.026805192763797e-14
 42 -8.7933908495826179e-14
 43 6.989040041010676e-16
 44 -0.14689995562425737
 45 -3.1817061873918087e-14
 46 -2.5727379099335725e-14
 47 7.5540236717843173e-14
 48 4.9579088258062667e-17
 49 -0.14689995562424416
 50 -3.4534565520581722e-14
 51 -0.089335487521216589
 52 0.10579171145995211
 53 0.10579171145985254
 54 -0.089335487521220322
 55 0.089335487521223708
 56 -0.10579171145992977
 57 -0.10579171145987236
 58 0.089335487521222542
Sym= A
Ene= -0.77720473266617174
Spin= Alpha
Occup= 2
 1 0.0010937098354698201
 2 -0.0080620275861352855
 3 -6.796770119433673e-16
 4 0.16390556871413545
 5 -0.0068349609851791676
 6 -0.079744919914603501
 7 0.23075896023463927
 8 5.5417148389575154e-16
 9 0.00051710267278341424
 10 0.0902899877027451
 11 0.079744919914640236
 12 -0.23075896023475395
 13 5.4662170096499815e-17
 14 -0.00051710267287022674
 15 0.090289987702724228
 16 -0.001093709835499071
 17 0.0080620275862160785
 18 1.884576777965359e-16
 19 -0.16390556871413861
 20 -0.0068349609851314809
 21 -0.0010937098354506618
 22 0.0080620275860769502
 23 -3.472593007265813e-16
 24 0.1639055687141189
 25 -0.0068349609851290306
 26 0.079744919914596452
 27 -0.23075896023462705
 28 2.4850592683176403e-16
 29 0.00051710267279813163
 30 0.090289987702780045
 31 -0.079744919914647827
 32 0.23075896023477635
 33 -1.857908175151452e-16
 34 -0.00051710267286883202
 35 0.090289987702688021
 36 0.0010937098355309066
 37 -0.0080620275863100693
 38 4.4036448861890078e-16
 39 -0.16390556871415471
 40 -0.0068349609851819614
 41 0.085127224262147097
 42 -0.24817940160026086
 43 1.27758033015775e-16
 44 5.3467248552006493e-14
 45 -0.10062223752761931
 46 -0.085127224262181736
 47 0.2481794016003554
 48 -1.4132506627663695e-16
 49 4.3338597086525345e-14
 50 -0.10062223752749756
 51 -0.0081300788860206204
 52 0.11778339848057696
 53 -0.11778339848066555
 54 0.0081300788860165993
 55 0.0081300788859649496
 56 -0.11778339848059052
 57 0.11778339848065711
 58 -0.0081300788860888418
Sym= A
Ene= -0.75870059642948706