[Molden Format]
[Title]
generated by GANSU
[Atoms] (Angs)
N 1 7 0 0 0.567
N 2 7 0 0 -0.567
[GTO]
1 0
 s 3 1.00
    18.0523 0.535328
    4.88566 0.444635
    99.1062 0.154329
 s 3 1.00
    3.78046 -0.0999672
    0.878497 0.399513
    0.285714 0.700115
 p 3 1.00
    0.285714 0.391957
    0.878497 0.607684
    3.78046 0.155916

2 0
 s 3 1.00
    99.1062 0.154329
    4.88566 0.444635
    18.0523 0.535328
 s 3 1.00
    3.78046 -0.0999672
    0.878497 0.399513
    0.285714 0.700115
 p 3 1.00
    3.78046 0.155916
    0.878497 0.607684
    0.285714 0.391957

[MO]
Sym= A
Ene= -15.4399
Spin= Alpha
Occup= 2
 1 0.70316759864395917
 2 0.013153917052083226
 3 -1.2090428275840973e-14
 4 -3.2210948425975951e-15
 5 -0.00066630978814288724
 6 0.70316760173156556
 7 0.01315391716559778
 8 1.2077542433094916e-14
 9 3.2016473445119293e-15
 10 0.0006663098187344005
Sym= A
Ene= -15.439845942222284
Spin= Alpha
Occup= 2
 1 -0.70274700573511506
 2 -0.025836365887380568
 3 5.4439311421884199e-15
 4 1.3884558858808263e-15
 5 0.0069627721755876823
 6 0.70274700264566026
 7 0.025836365829587087
 8 5.478223579824997e-15
 9 1.4681979053329652e-15
 10 0.0069627721726602193
Sym= A
Ene= -1.3148704136819851
Spin= Alpha
Occup= 2
 1 0.17862706980998
 2 -0.53141606166334465
 3 6.4913584999505825e-13
 4 1.7449514439775448e-13
 5 0.1437036875695499
 6 0.17862706980998669
 7 -0.53141606166337796
 8 -6.4902716727716402e-13
 9 -1.7597602112936261e-13
 10 -0.14370368756954965
Sym= A
Ene= -0.65140648133496148
Spin= Alpha
Occup= 2
 1 0.17829858110050495
 2 -0.79374252351692443
 3 -2.9408774184537544e-12
 4 -7.9549297454998454e-13
 5 -0.16151390741993921
 6 -0.17829858110050029
 7 0.79374252351691554
 8 -2.9408486830668786e-12
 9 -7.9743817162886655e-13
 10 -0.16151390741995755
Sym= A
Ene= -0.588905387863773
Spin= Alpha
Occup= 2
 1 -1.1786374705616181e-12
 2 5.6438371328156034e-12
 3 -0.48678863106817499
 4 -0.13189286854440024
 5 2.2494266367840675e-13
 6 1.1784080269959972e-12
 7 -5.6429266417330792e-12
 8 -0.48678863106823417
 9 -0.13189286854441448
 10 2.2377449110799483e-13
Sym= A
Ene= -0.50807073049956875
Spin= Alpha
Occup= 2
 1 8.6946924564922143e-16
 2 -4.9663010432912855e-15
 3 -0.13189286854440527
 4 0.48678863106819664
 5 -5.991046875605345e-15
 6 1.0637075646535322e-15
 7 -5.7197755989338435e-15
 8 -0.13189286854440951
 9 0.4867886310682113
 10 6.3380724098792021e-15
Sym= A
Ene= -0.18294058749333056
Spin= Alpha
Occup= 2
 1 -2.5107138659103842e-12
 2 1.5496417147008407e-11
 3 0.63595752488965651
 4 0.17230941085464319
 5 2.0709813617195622e-11
 6 -2.5105120714471453e-12
 7 1.5495439721134315e-11
 8 -0.63595752488961144
 9 -0.17230941085463153
 10 -2.0709855963174927e-11
Sym= A
Ene= -0.065722166644495997
Spin= Alpha
Occup= 0
 1 0.055866694548775298
 2 -0.35675506032566628
 3 2.6657951963938132e-11
 4 7.2134562236156471e-12
 5 -0.49758688531859346
 6 0.055866694548767443
 7 -0.35675506032561694
 8 -2.6655845486484784e-11
 9 -7.226294482583493e-12
 10 0.4975868853186135
Sym= A
Ene= 0.29279558859900223
Spin= Alpha
Occup= 0
 1 6.0932847798975156e-17
 2 4.8749993519038078e-16
 3 -0.17230941085463949
 4 0.63595752488963952
 5 -2.9601844345693588e-15
 6 8.7861137050251203e-16
 7 -4.5076428201067734e-15
 8 0.17230941085463516
 9 -0.63595752488962842
 10 8.271747278231709e-16
Sym= A
Ene= 1.1259328452655344
Spin= Alpha
Occup= 0
 1 0.1169077431866688
 2 -1.060535558407542
 3 -3.8955305371862703e-13
 4 -1.0447718749443948e-13
 5 0.93931008916857117
 6 -0.11690774318666879
 7 1.0605355584075473
 8 -3.8929531715703355e-13
 9 -1.0641856697271629e-13
 10 0.93931008916855729
