[Molden Format]
[Title]
generated by GANSU
[Atoms] (Angs)
N 1 7 0 0.139 0
O 2 8 -0.329 -1.248 0
O 3 8 1.247 0.408 0
O 4 8 -0.991 0.924 0
H 5 1 0.588 -1.645 0
[GTO]
1 0
 s 3 1.00
    18.0523 0.535328
    4.88566 0.444635
    99.1062 0.154329
 s 3 1.00
    3.78046 -0.0999672
    0.878497 0.399513
    0.285714 0.700115
 p 3 1.00
    3.78046 0.155916
    0.878497 0.607684
    0.285714 0.391957

2 0
 s 3 1.00
    130.709 0.154329
    23.8089 0.535328
    6.44361 0.444635
 s 3 1.00
    5.03315 -0.0999672
    1.1696 0.399513
    0.380389 0.700115
 p 3 1.00
    0.380389 0.391957
    1.1696 0.607684
    5.03315 0.155916

3 0
 s 3 1.00
    23.8089 0.535328
    6.44361 0.444635
    130.709 0.154329
 s 3 1.00
    5.03315 -0.0999672
    1.1696 0.399513
    0.380389 0.700115
 p 3 1.00
    0.380389 0.391957
    1.1696 0.607684
    5.03315 0.155916

4 0
 s 3 1.00
    6.44361 0.444635
    23.8089 0.535328
    130.709 0.154329
 s 3 1.00
    0.380389 0.700115
    1.1696 0.399513
    5.03315 -0.0999672
 p 3 1.00
    5.03315 0.155916
    1.1696 0.607684
    0.380389 0.391957

5 0
 s 3 1.00
    0.168855 0.444635
    0.623914 0.535328
    3.42525 0.154329

[MO]
Sym= A
Ene= -20.4092
Spin= Alpha
Occup= 2
 1 0.00039248270322714968
 2 -0.003458109392033378
 3 0.00068011718519482361
 4 0.0026588242466039861
 5 -3.2756114043847022e-18
 6 0.99435394107545483
 7 0.024775632645186112
 8 0.0026770795479559664
 9 0.0010193205011292355
 10 -1.1002205985381867e-16
 11 0.00026223099883126695
 12 0.00032157405809929521
 13 -3.8254588953823993e-05
 14 -0.00028862702260848639
 15 1.5800817900050563e-17
 16 2.2498146914453344e-05
 17 0.00016496499020043611
 18 -1.1934017959556601e-05
 19 -0.00016976166807850654
 20 4.1913276165090138e-17
 21 -0.0057362701629203785
Sym= A
Ene= -20.314662136560511
Spin= Alpha
Occup= 2
 1 -0.00048486872505392809
 2 0.0053993490653575947
 3 -0.0030754600389575545
 4 0.0023999976196763624
 5 -1.7925306386280469e-16
 6 4.7566428937013138e-05
 7 -0.00018648382532016365
 8 5.252942257715286e-05
 9 -8.7715088632418201e-05
 10 7.7187917462923336e-17
 11 0.0005351743158074746
 12 -1.6684981416948539e-06
 13 5.086181418106446e-05
 14 -0.0002089557667059692
 15 1.7344357074905855e-17
 16 -0.99450317278108624
 17 -0.023830948150491013
 18 -0.0026311443416297139
 19 0.002091162223847177
 20 7.3005084962200447e-17
 21 0.00010603195076071873
Sym= A
Ene= -20.290804292154366
Spin= Alpha
Occup= 2
 1 0.0004805713052920565
 2 -0.0052461458062998262
 3 -0.0037481774042284321
 4 -0.00079541412938637253
 5 2.3131672691974123e-19
 6 -0.00033971131209426122
 7 0.0003671352924201103
 8 0.00024912466124521791
 9 -1.7095332313251696e-05
 10 -6.5367932885729975e-17
 11 0.99449446310426937
 12 0.023791620711163565
 13 -0.0031817868081389375
 14 -0.00073088987887895516
 15 -1.7243511859611774e-17
 16 0.0005290921176645812
 17 2.1424375079526412e-05
 18 0.00014378506001266666
 19 0.00016845826777630552
 20 6.0810483932648165e-17
 21 -0.00054722368055476955
Sym= A
Ene= -15.699994108789614
Spin= Alpha
Occup= 2
 1 0.99393933547203694
 2 0.02724370300489215
 3 1.6512898620660001e-05
 4 0.00036980244947298999
 5 -5.3164713448429279e-17
 6 0.00048688657533960735
 7 -0.0033862054371061067
 8 -0.00029876057908314067
 9 -0.00213569733135983
 10 -2.3376447669172487e-18
 11 0.00047020528552446737
 12 -0.0046935524637461779
 13 0.0021777941317729661
 14 0.00039007850938186804
 15 -5.1200428114545429e-19
 16 0.00046641808314612363
 17 -0.0048296058008713613
 18 -0.0017814312857091566
 19 0.0013394203538103972
 20 -1.2701200212120375e-18
 21 -0.00076515068979488357
Sym= A
Ene= -1.5389808704219172
Spin= Alpha
Occup= 2
 1 0.16930616500562176
 2 -0.5355370031929404
 3 -0.0041026026372486422
 4 -0.0050752704021055804
 5 5.8572415049855509e-17
 6 0.10228057107922545
 7 -0.35078368347754163
 8 -0.039743284815067989
 9 -0.046857208189110461
 10 -5.2875263242892259e-17
 11 0.096619485170496969
 12 -0.31433924999760204
 13 0.068750099637041193
 14 0.019188030892986447
 15 -7.1726456944771314e-17
 16 0.098384400491533491
 17 -0.32125344982876597
 18 -0.05707061835577372
 19 0.046716726903736697
 20 -9.9850197098128271e-17
 21 -0.04453916067258662
Sym= A
Ene= -1.3399045389035258
Spin= Alpha
Occup= 2
 1 -0.037290643712660575
 2 0.12110657172409402
 3 -0.032287562449509935
 4 0.1753102841959972
 5 2.7070258200598638e-16
 6 0.19454556976545526
 7 -0.71676426777050295
 8 -0.073949488895607873
 9 -0.016130853787501072
 10 2.3441028061074148e-16
 11 -0.038679083196450213
 12 0.13831025906784009
 13 -0.02488430527870901
 14 0.011350786765781651
 15 2.7916984437137916e-16
 16 -0.11931800242719957
 17 0.42040837872176573
 18 0.053826904224197586
 19 -0.028785293143574871
 20 -5.7497801312240816e-17
 21 -0.12807333433046653
Sym= A
Ene= -1.3067092411975281
Spin= Alpha
Occup= 2
 1 0.0091924819810515097
 2 -0.032167046370993622
 3 -0.25860332247279055
 4 0.014220393133750822
 5 3.4649491672746185e-16
 6 -0.055954128886110358
 7 0.20908411967001436
 8 0.00099342436705904887
 9 0.008092388034185969
 10 2.5034890683148788e-16
 11 0.17694522312201716
 12 -0.63034541738013627
 13 0.073335094914468268
 14 0.026836663463439624
 15 3.6892204183410113e-16
 16 -0.13244378260594833
 17 0.47082822239124256
 18 0.035913561795015085
 19 -0.046543647580854532
 20 -2.1749089906620099e-16
 21 0.023326973173599989
Sym= A
Ene= -0.85460923507220388
Spin= Alpha
Occup= 2
 1 -0.14370986798614491
 2 0.60394925802411548
 3 -0.04691341887324918
 4 -0.17571683798040344
 5 6.6950742170761e-16
 6 0.066832333514204756
 7 -0.2874292098419402
 8 -0.053523543995519604
 9 0.24438939740127652
 10 -2.5317911084690013e-16
 11 0.10093235213819664
 12 -0.4400994991928891
 13 -0.091532347295176175
 14 -0.049227446484349353
 15 2.1237391015250242e-16
 16 0.11531426786903036
 17 -0.50397302941263933
 18 0.056923587105036186
 19 -0.10789352459979724
 20 2.0052414550767525e-16
 21 -0.21805611954861631
Sym= A
Ene= -0.6885872209303705
Spin= Alpha
Occup= 2
 1 -0.056229280046647422
 2 0.23509057749100024
 3 0.18636222181997861
 4 0.32507093933541392
 5 -2.2146470191403526e-15
 6 0.0078084996323771558
 7 -0.043378241030861985
 8 0.18119914728553527
 9 -0.20841125369487454
 10 6.0092011065920248e-18
 11 0.10461803159064068
 12 -0.49810876676998839
 13 -0.23667016008389657
 14 0.064704500016788236
 15 -5.4252642684630056e-16
 16 0.048528459199275689
 17 -0.23052579712037971
 18 0.21148102275894837
 19 0.085665966971369689
 20 -8.4545090818988164e-16
 21 0.24115783502160715
Sym= A
Ene= -0.66763561384204273
Spin= Alpha
Occup= 2
 1 2.475277063984101e-16
 2 -1.1057022157352302e-15
 3 2.4873881697811448e-14
 4 -2.7945246287654094e-14
 5 -0.53422285517112711
 6 6.8898075283971738e-15
 7 -3.3599994176279626e-14
 8 3.0038408795605616e-14
 9 1.0899804496637332e-14
 10 -0.29771476339071384
 11 4.6106674302701495e-15
 12 -2.2467888731177672e-14
 13 -1.0367960647568061e-14
 14 -1.092397610266108e-14
 15 -0.23268460968507274
 16 -8.9390057015572841e-15
 17 4.4026254114241614e-14
 18 -2.7662703412614878e-14
 19 6.6901120885284437e-15
 20 -0.23586522412158534
 21 1.5039482430779333e-14
Sym= A
Ene= -0.64671843934242179
Spin= Alpha
Occup= 2
 1 -0.0017033009932890929
 2 0.0078602960606478974
 3 -0.25431666314008911
 4 0.2795531161650408
 5 -5.1588330447034003e-14
 6 -0.07165953401581282
 7 0.35039686235542911
 8 -0.30552024522267046
 9 -0.098055563039801952
 10 -2.6807590903751674e-14
 11 -0.049135146586824614
 12 0.23841369701374446
 13 0.069480158033614653
 14 0.23322460294690586
 15 -8.1740884580935888e-15
 16 0.090393283830494039
 17 -0.44482886015722867
 18 0.20480124023403073
 19 -0.12938035429709024
 20 -3.5463452456007273e-14
 21 -0.16761729340769418
Sym= A
Ene= -0.55088920381723294
Spin= Alpha
Occup= 2
 1 -0.010174896381668047
 2 0.035918358156961393
 3 -0.32091611831479666
 4 0.0031044209442846571
 5 -1.1148988984745576e-15
 6 0.072328961165485067
 7 -0.37082590234731078
 8 0.38769543419496327
 9 -0.007837194454647544
 10 9.801681099534967e-16
 11 -0.049069415351913941
 12 0.25575794796936679
 13 0.22778411652228131
 14 -0.0013575481112998407
 15 1.3061516077290093e-15
 16 0.05246270900371762
 17 -0.27038703998465824
 18 0.090955309745936075
 19 -0.26171715475138924
 20 -1.5519705570382866e-15
 21 0.3394687607517064
Sym= A
Ene= -0.46298171093521878
Spin= Alpha
Occup= 2
 1 -5.1140615825786009e-17
 2 3.2864742894003747e-16
 3 1.1183186979036653e-15
 4 -1.2131617955286605e-15
 5 -0.19323220044552189
 6 7.3615751102736101e-17
 7 -2.7749551840744074e-16
 8 5.3407229788823296e-16
 9 5.9237896123008034e-16
 10 0.66867966445922988
 11 1.4528624724024026e-16
 12 -7.9979978414749157e-16
 13 -2.2714676260948619e-15
 14 4.8442029775131274e-15
 15 -0.20407668466357079
 16 -2.422168734327225e-16
 17 1.3444999879386903e-15
 18 -4.2962326580085367e-15
 19 -1.8643246576214876e-15
 20 -0.20252604095649029
 21 -7.1960761710661233e-16
Sym= A
Ene= -0.39263551908829669
Spin= Alpha
Occup= 2
 1 0.0041775750793951235
 2 -0.016409418153019602
 3 -0.085048260468394254
 4 -0.018635204413507706
 5 -1.4303404218919297e-14
 6 -0.0036918048566883035
 7 0.017970289448617262
 8 -0.013420334125200913
 9 0.089868712246148369
 10 1.5758629968592523e-15
 11 -0.013646777709383121
 12 0.0757571920495788
 13 0.23101418007308192
 14 -0.33283097425963298
 15 1.3979951759321166e-13
 16 0.0067650683017966857
 17 -0.037762228298435063
 18 0.44935417807736888
 19 0.43059639109737352
 20 -1.4646675451469362e-13
 21 -0.03651619219796965
Sym= A
Ene= -0.38513085046077239
Spin= Alpha
Occup= 2
 1 -0.0099117967434482045
 2 0.033223316605971241
 3 0.023350189375127586
 4 0.10957706321647295
 5 -8.9714744360407637e-15
 6 -0.005950069476808862
 7 0.030390734258541479
 8 -0.19746632826372826
 9 -0.27395108794129391
 10 1.4511984513379287e-15
 11 0.012419073400442135
 12 -0.063362063157956214
 13 0.0012526430690066126
 14 -0.58323322785601572
 15 7.0533719201032136e-14
 16 0.011112893907307577
 17 -0.059122061997543274
 18 -0.074556573978427743
 19 -0.31153927926262009
 20 -7.0331583710486313e-14
 21 0.037077924903124879
Sym= A
Ene= -0.3146218612961672
Spin= Alpha
Occup= 2
 1 -2.4354306187169122e-16
 2 1.3416956008713967e-16
 3 -2.7025617560877374e-14
 4 1.6736730597559992e-14
 5 0.010119768129603716
 6 -3.4308094212307823e-15
 7 1.690203327057911e-14
 8 -3.6723263175806147e-14
 9 -1.4760598679447922e-14
 10 -0.0056396058794795775
 11 -3.3520622676140747e-15
 12 1.8508195088952266e-14
 13 6.5123747797152646e-14
 14 -1.6158227418243817e-13
 15 -0.53894612093464966
 16 5.6967304146292106e-15
 17 -2.9904938282179148e-14
 18 1.1747590970882224e-13
 19 7.0640635489850243e-14
 20 0.51834916186363511
 21 -8.3224516730513691e-15
Sym= A
Ene= 0.17940657547863259
Spin= Alpha
Occup= 0
 1 -3.2398830935685548e-16
 2 1.6818883250872844e-15
 3 9.4720891192218689e-17
 4 2.4828322539572367e-16
 5 0.60176369131642649
 6 -4.7200353202113396e-17
 7 5.8090814921192721e-16
 8 3.6608335533310279e-16
 9 -2.4283794274519686e-15
 10 -0.16540079043503891
 11 1.6863154106249514e-16
 12 -3.0823743007954299e-16
 13 8.2608982631650887e-16
 14 -1.4827789909762416e-15
 15 -0.429464421069228
 16 -7.7985414268924738e-18
 17 -7.4333563365849437e-16
 18 -1.9853227804274809e-16
 19 -1.3491623368883362e-15
 20 -0.45404553658198826
 21 -1.5900323637709341e-15
Sym= A
Ene= 0.41193069235116264
Spin= Alpha
Occup= 0
 1 0.13667337485965214
 2 -0.77507536359721807
 3 0.11391802587734157
 4 0.4579851785543268
 5 3.2021607435182373e-16
 6 -0.089930350797393033
 7 0.53079636473254355
 8 0.25623193699355362
 9 0.54648463497281619
 10 2.1299611099958204e-16
 11 -0.023281849124438109
 12 0.12920452382959979
 13 -0.1889404011468471
 14 -0.17892228996355078
 15 -3.3488235817339016e-16
 16 -0.023202609334148739
 17 0.1298594195990028
 18 0.10049239157441739
 19 -0.24299912925704478
 20 -4.9251704402875751e-16
 21 -0.25881411006647304
Sym= A
Ene= 0.53157617703165838
Spin= Alpha
Occup= 0
 1 0.041279856098926551
 2 -0.25387298836274674
 3 -0.12065888596920638
 4 0.056167706402908926
 5 1.5552612870512085e-15
 6 0.073008114466552976
 7 -0.49013107874352757
 8 -0.49952311875464017
 9 0.36923466938020677
 10 -3.2241327017248641e-16
 11 -0.013234707217129304
 12 0.087804804721354435
 13 -0.18564279924050953
 14 -0.0021385028191009572
 15 -9.6857938061113958e-16
 16 0.0021265614382632858
 17 -0.012732658410060015
 18 0.0085741456668654899
 19 0.027034467789600954
 20 -9.9204717206147867e-16
 21 1.0836527143321728
Sym= A
Ene= 0.62658423260705765
Spin= Alpha
Occup= 0
 1 0.11063729168637351
 2 -0.70381785379802098
 3 -0.14100968868509012
 4 -0.63555562616919614
 5 1.1097491079954964e-16
 6 0.01483226008121972
 7 -0.086264493956961563
 8 0.015829650758175603
 9 -0.20060256776558597
 10 -1.1320687932907061e-16
 11 -0.060653992755329851
 12 0.37533438466975583
 13 -0.50640128791606798
 14 0.035521978352891573
 15 -5.3882615628406447e-18
 16 -0.06167096524133546
 17 0.38536856707668005
 18 0.47556058215221092
 19 -0.19400869461797185
 20 -1.9982196178722966e-16
 21 -0.10957233174529074
Sym= A
Ene= 0.79532400688623317
Spin= Alpha
Occup= 0
 1 -0.007802346555150037
 2 0.051677433202680062
 3 -0.85953588009387982
 4 0.1957377478547476
 5 8.6537143908472905e-17
 6 -0.0081334835999552768
 7 0.057415457457327491
 8 0.16609274514050812
 9 -0.070254421477952994
 10 1.9038784012700634e-18
 11 -0.066572672717037068
 12 0.43877382385063579
 13 -0.46210738425510778
 14 -0.18704141228926691
 15 -1.0333549171635765e-16
 16 0.06992686415558709
 17 -0.46576755084025212
 18 -0.35501571586454178
 19 0.38609722211734948
 20 2.0277651869417125e-16
 21 -0.14707237758936434
