[Molden Format]
[Title]
generated by GANSU
[Atoms] (Angs)
O 1 8 0.0424 -1.3569 0.411
O 2 8 2.4896 -0.1938 -0.1771
O 3 8 -1.5272 0.9543 0.2726
O 4 8 -1.143 -2.6329 -0.9457
O 5 8 -1.5454 -2.7561 1.244
O 6 8 3.3033 1.8382 0.1442
O 7 8 -3.2965 1.5003 -0.9379
O 8 8 4.689 0.1002 0.3197
O 9 8 -3.149 2.2897 1.1422
N 10 7 -0.9724 -2.334 0.2369
N 11 7 3.5993 0.6429 0.1229
N 12 7 -2.764 1.6465 0.1631
C 13 6 0.1644 -0.4658 -0.7
C 14 6 1.2787 0.5245 -0.3881
C 15 6 -1.1692 0.2429 -0.9077
H 16 1 0.4619 -1.0291 -1.5943
H 17 1 1.0315 1.0753 0.5284
H 18 1 1.3888 1.2205 -1.2291
H 19 1 -1.9707 -0.4513 -1.1776
H 20 1 -1.0471 0.9527 -1.7372
[GTO]
1 0
 s 3 1.00
    23.8089 0.535328
    6.44361 0.444635
    130.709 0.154329
 s 3 1.00
    5.03315 -0.0999672
    1.1696 0.399513
    0.380389 0.700115
 p 3 1.00
    0.380389 0.391957
    1.1696 0.607684
    5.03315 0.155916

2 0
 s 3 1.00
    23.8089 0.535328
    6.44361 0.444635
    130.709 0.154329
 s 3 1.00
    5.03315 -0.0999672
    1.1696 0.399513
    0.380389 0.700115
 p 3 1.00
    5.03315 0.155916
    1.1696 0.607684
    0.380389 0.391957

3 0
 s 3 1.00
    130.709 0.154329
    23.8089 0.535328
    6.44361 0.444635
 s 3 1.00
    0.380389 0.700115
    1.1696 0.399513
    5.03315 -0.0999672
 p 3 1.00
    0.380389 0.391957
    5.03315 0.155916
    1.1696 0.607684

4 0
 s 3 1.00
    23.8089 0.535328
    130.709 0.154329
    6.44361 0.444635
 s 3 1.00
    0.380389 0.700115
    1.1696 0.399513
    5.03315 -0.0999672
 p 3 1.00
    5.03315 0.155916
    1.1696 0.607684
    0.380389 0.391957

5 0
 s 3 1.00
    6.44361 0.444635
    23.8089 0.535328
    130.709 0.154329
 s 3 1.00
    0.380389 0.700115
    1.1696 0.399513
    5.03315 -0.0999672
 p 3 1.00
    5.03315 0.155916
    1.1696 0.607684
    0.380389 0.391957

6 0
 s 3 1.00
    6.44361 0.444635
    23.8089 0.535328
    130.709 0.154329
 s 3 1.00
    5.03315 -0.0999672
    1.1696 0.399513
    0.380389 0.700115
 p 3 1.00
    0.380389 0.391957
    5.03315 0.155916
    1.1696 0.607684

7 0
 s 3 1.00
    6.44361 0.444635
    23.8089 0.535328
    130.709 0.154329
 s 3 1.00
    0.380389 0.700115
    1.1696 0.399513
    5.03315 -0.0999672
 p 3 1.00
    0.380389 0.391957
    5.03315 0.155916
    1.1696 0.607684

8 0
 s 3 1.00
    130.709 0.154329
    23.8089 0.535328
    6.44361 0.444635
 s 3 1.00
    5.03315 -0.0999672
    1.1696 0.399513
    0.380389 0.700115
 p 3 1.00
    0.380389 0.391957
    1.1696 0.607684
    5.03315 0.155916

9 0
 s 3 1.00
    6.44361 0.444635
    23.8089 0.535328
    130.709 0.154329
 s 3 1.00
    0.380389 0.700115
    1.1696 0.399513
    5.03315 -0.0999672
 p 3 1.00
    5.03315 0.155916
    1.1696 0.607684
    0.380389 0.391957

10 0
 s 3 1.00
    99.1062 0.154329
    18.0523 0.535328
    4.88566 0.444635
 s 3 1.00
    3.78046 -0.0999672
    0.878497 0.399513
    0.285714 0.700115
 p 3 1.00
    0.285714 0.391957
    0.878497 0.607684
    3.78046 0.155916

11 0
 s 3 1.00
    4.88566 0.444635
    18.0523 0.535328
    99.1062 0.154329
 s 3 1.00
    0.285714 0.700115
    0.878497 0.399513
    3.78046 -0.0999672
 p 3 1.00
    0.285714 0.391957
    0.878497 0.607684
    3.78046 0.155916

12 0
 s 3 1.00
    4.88566 0.444635
    18.0523 0.535328
    99.1062 0.154329
 s 3 1.00
    0.285714 0.700115
    3.78046 -0.0999672
    0.878497 0.399513
 p 3 1.00
    0.285714 0.391957
    0.878497 0.607684
    3.78046 0.155916

13 0
 s 3 1.00
    3.53051 0.444635
    13.0451 0.535328
    71.6168 0.154329
 s 3 1.00
    2.94125 -0.0999672
    0.683483 0.399513
    0.22229 0.700115
 p 3 1.00
    0.683483 0.607684
    2.94125 0.155916
    0.22229 0.391957

14 0
 s 3 1.00
    13.0451 0.535328
    71.6168 0.154329
    3.53051 0.444635
 s 3 1.00
    2.94125 -0.0999672
    0.683483 0.399513
    0.22229 0.700115
 p 3 1.00
    2.94125 0.155916
    0.22229 0.391957
    0.683483 0.607684

15 0
 s 3 1.00
    71.6168 0.154329
    13.0451 0.535328
    3.53051 0.444635
 s 3 1.00
    2.94125 -0.0999672
    0.683483 0.399513
    0.22229 0.700115
 p 3 1.00
    0.22229 0.391957
    0.683483 0.607684
    2.94125 0.155916

16 0
 s 3 1.00
    0.623914 0.535328
    0.168855 0.444635
    3.42525 0.154329

17 0
 s 3 1.00
    3.42525 0.154329
    0.623914 0.535328
    0.168855 0.444635

18 0
 s 3 1.00
    3.42525 0.154329
    0.623914 0.535328
    0.168855 0.444635

19 0
 s 3 1.00
    3.42525 0.154329
    0.623914 0.535328
    0.168855 0.444635

20 0
 s 3 1.00
    0.168855 0.444635
    3.42525 0.154329
    0.623914 0.535328

[MO]
Sym= A
Ene= -20.4049
Spin= Alpha
Occup= 2
 1 -0.003988566303178287
 2 -0.00010379901898682233
 3 2.1741285113834052e-05
 4 9.0090016168983822e-07
 5 1.7170368398078482e-05
 6 0.00044996107991175063
 7 1.9212458170923298e-05
 8 -3.6791061097055794e-06
 9 7.7205637468592131e-06
 10 -1.0868239902969701e-06
 11 -0.99429819446224799
 12 -0.024872320507893699
 13 0.0012636975194938206
 14 0.00020120530556034816
 15 0.0022768725166144935
 16 3.6679367674069561e-05
 17 1.8332999871801267e-05
 18 -2.1504192342777437e-06
 19 1.0375705773143021e-05
 20 -8.6524039872486538e-07
 21 4.1703111816097048e-06
 22 5.6485789223354691e-07
 23 -1.5619102508458022e-06
 24 1.2337306282035609e-06
 25 -1.0589401087711739e-06
 26 -5.9367204268780983e-06
 27 -2.5951134326814181e-06
 28 2.1250699327587594e-06
 29 -4.4528832105882737e-07
 30 -1.4383839234931306e-06
 31 -0.00014663833698722907
 32 -0.0002925317636051734
 33 -0.0002043548516917253
 34 9.8996693588845712e-05
 35 -5.3330738774044414e-05
 36 2.7626598701126106e-07
 37 1.5993731114667675e-07
 38 -1.8507178228040905e-07
 39 -9.8370628792004977e-08
 40 1.6101286662642544e-07
 41 -2.1149553926086135e-05
 42 -0.00011908173563952894
 43 -0.00015449396646507758
 44 8.1616101554802395e-05
 45 -2.5162393346062767e-05
 46 1.574125182579318e-06
 47 -4.3678684386742926e-06
 48 1.6543405449886278e-05
 49 -8.7280127727693349e-06
 50 9.4536788620917366e-06
 51 3.4585974202546712e-07
 52 -3.1055301068145559e-06
 53 1.9183833526591372e-06
 54 8.0276065398006673e-07
 55 -9.6712566104097293e-07
 56 -0.00040501321141606008
 57 0.0036233772361800344
 58 0.0024182506400803258
 59 -0.0013837290276930946
 60 0.0001415948148191324
 61 8.3419638390227341e-06
 62 -0.00024247709697652019
 63 0.00011902979041925055
 64 -0.00013969973144611555
 65 -0.00010579275315050589
 66 1.34910564790593e-05
 67 -0.00011426551862870563
 68 -1.3525344176525947e-05
 69 -5.1421362218667666e-05
 70 -3.6773515278525938e-05
 71 -0.00054689880479077708
 72 0.0044904740860984317
 73 -0.00093218166201669561
 74 0.0017943279321503604
 75 0.0029271817531797695
 76 5.9818752595647805e-05
 77 0.00025096117867454484
 78 1.5869117640416458e-05
 79 -0.00027749724051421946
 80 -0.0002720662247781714
Sym= A
Ene= -20.404087153486518
Spin= Alpha
Occup= 2
 1 -0.99430385670346699
 2 -0.024829923609608371
 3 0.0013636437628755244
 4 -3.9334262155561392e-05
 5 0.0022305962362574455
 6 -0.0017917038779022574
 7 -5.6868080253253545e-05
 8 1.2519330153969166e-05
 9 4.1887158588136547e-06
 10 1.8997838672790701e-05
 11 0.0039942817966607883
 12 8.5665260382363363e-05
 13 -2.7490841124812944e-05
 14 -7.0681522680712469e-06
 15 -2.9072367836446844e-06
 16 -8.0419547723490021e-05
 17 -0.00026352310765907121
 18 -0.00012239131867344821
 19 -0.00015828986823011759
 20 -6.4366410733088437e-05
 21 -1.2517544747621797e-05
 22 -0.00011468151898736323
 23 -0.00012521518115930774
 24 -0.00011586424552858816
 25 -3.7179476207550854e-05
 26 -1.0538892254230827e-05
 27 -5.1862160396752045e-06
 28 3.4864824480780425e-06
 29 5.0377881154195503e-07
 30 1.522090342582702e-06
 31 -6.665126851725621e-06
 32 -1.9496288101127079e-06
 33 -1.5843233554229535e-06
 34 -2.3228552187542356e-07
 35 1.5204245563264817e-06
 36 -1.475355168832084e-07
 37 -3.0704739753127566e-07
 38 2.0899733800972681e-07
 39 3.5930010083493058e-08
 40 3.4670260589536595e-08
 41 -4.9924749828754011e-07
 42 3.0378933696764178e-07
 43 6.5515057380387265e-07
 44 -2.1318488641584865e-07
 45 1.8640287782821334e-07
 46 -0.00040506214675523414
 47 0.0036331891842499957
 48 0.0020097851042731665
 49 0.0019384546281213944
 50 0.00027517773009365365
 51 -3.7064829573434099e-07
 52 2.588171766021094e-06
 53 -1.462515697506217e-06
 54 -1.8068806547531444e-06
 55 -9.7327607215605405e-07
 56 1.8132305949129877e-06
 57 -1.6989714021099105e-05
 58 -1.1046732475584542e-05
 59 6.5974185351554311e-06
 60 -2.2644358678262921e-07
 61 -0.00054872480799451548
 62 0.0044475568781009861
 63 -0.0003433458992267522
 64 -0.0022151117514819605
 65 0.0027450900229887207
 66 1.179773315852263e-05
 67 -0.00030782485426691583
 68 0.00012359998658404911
 69 0.00012308711789647125
 70 -9.3122672377338872e-05
 71 1.1485662056563966e-05
 72 -0.00029805337723916997
 73 -8.1744287352462919e-05
 74 0.00014713320075808553
 75 -0.0001062015541534499
 76 -0.00025698660565500082
 77 9.2220462823087643e-05
 78 8.2272922874916665e-05
 79 -4.7288379766679406e-06
 80 8.3291091662655858e-05
Sym= A
Ene= -20.40207621557709
Spin= Alpha
Occup= 2
 1 0.0017969149460368662
 2 3.4015621826087236e-05
 3 -6.7721045364857457e-06
 4 -2.2890205761288886e-05
 5 -1.3441012490719717e-05
 6 -0.99430880779290576
 7 -0.024855756683291905
 8 0.00045100202874487133
 9 -0.0025783647624868858
 10 -7.8359806955747137e-05
 11 -0.00045919548783208671
 12 -1.4666316664970272e-05
 13 1.2009723929954936e-05
 14 5.402555276331697e-06
 15 1.0820957049684004e-05
 16 -4.9557721767325038e-06
 17 -1.7368492317845156e-06
 18 -6.7719412530711787e-08
 19 -1.0677374283766042e-06
 20 1.2849947533012662e-06
 21 3.7633498367253956e-07
 22 2.1812514314103513e-07
 23 3.7268008588366153e-07
 24 3.6249390799290848e-07
 25 1.819837076024941e-07
 26 -0.00014484051838192921
 27 -0.00029300039471542774
 28 0.00015743818846294336
 29 0.00016612600585058125
 30 4.619584296019206e-05
 31 -1.3727130451100713e-06
 32 -8.2052576775388728e-07
 33 -5.0252045003733141e-07
 34 3.4487415854415719e-09
 35 1.2856836920050949e-07
 36 -2.0398717270107814e-05
 37 -0.00011881372865044136
 38 0.00013006561443360855
 39 0.00011360327130564764
 40 3.6273154573658855e-05
 41 -3.7241752243481405e-08
 42 2.2085703620979003e-08
 43 -7.9178527376960739e-08
 44 1.9141327131026557e-07
 45 -1.7673327548260384e-07
 46 1.0749289828789008e-06
 47 -1.0773247960894385e-05
 48 -5.6868446542913606e-06
 49 -5.0254427624903814e-06
 50 4.3252532471848432e-08
 51 -0.000404922085201034
 52 0.0036207111499825285
 53 -0.0022214849824829935
 54 -0.0015769214996418368
 55 -0.00059411701997392694
 56 -2.6590095444272224e-07
 57 2.9431630437085684e-06
 58 1.3700779429304255e-06
 59 -2.4166475398991819e-06
 60 1.6738055423006924e-07
 61 1.5266188821584127e-05
 62 -0.00031769299115919775
 63 -0.00021170465376588524
 64 8.3419527028292043e-07
 65 -1.5958882704529206e-05
 66 -0.00054742434143994828
 67 0.0044989989760319538
 68 0.0030423875584826496
 69 -0.0017694416523820686
 70 0.00054083440665789791
 71 -1.0973458761441221e-05
 72 5.1301023048418333e-05
 73 7.4567231636808035e-05
 74 5.6309867259166438e-05
 75 3.0422034602821044e-05
 76 9.618111149495203e-05
 77 -0.00028267254868901553
 78 -0.00026433347987152994
 79 2.6992434179098912e-05
 80 2.2979210173711129e-05
Sym= A
Ene= -20.333867821586825
Spin= Alpha
Occup= 2
 1 3.1630992316158545e-05
 2 -0.00015242122843592363
 3 7.2284438208716371e-05
 4 5.3840716364965705e-05
 5 -9.9961403002668536e-05
 6 -3.7537623265835891e-07
 7 3.5476265003572469e-07
 8 1.5586340154942133e-08
 9 7.0505981450381472e-07
 10 3.0744821449997517e-08
 11 -4.6549802075648077e-06
 12 2.776496673975021e-06
 13 8.2125211168940573e-07
 14 -4.5530706524764047e-07
 15 -1.8403947864994129e-06
 16 0.00062998999758289689
 17 -2.3157305522969549e-05
 18 0.00016965556913709368
 19 0.00015016674849915868
 20 -7.7335536078914106e-05
 21 -0.99445147031274383
 22 -0.024288549215758549
 23 -0.0017111559393393552
 24 -0.0012626083468246264
 25 0.0029965823487169974
 26 1.4023126202356993e-06
 27 1.624882374947614e-07
 28 -1.230507032933285e-07
 29 -2.893847946737688e-08
 30 -4.4688372819508965e-08
 31 2.8299965929589645e-06
 32 2.3963306917121818e-07
 33 6.5183321659874859e-08
 34 -1.3599427290289946e-07
 35 -3.2047040902669706e-09
 36 2.3769162026508484e-07
 37 3.4850069834646265e-08
 38 -1.2414910391240455e-08
 39 1.059488057607813e-08
 40 1.6522280729984115e-09
 41 1.8869620846279597e-06
 42 4.283913157912024e-08
 43 7.1502694595293806e-08
 44 8.2956112118504066e-10
 45 -8.7971972562373357e-09
 46 -0.00049410623164326383
 47 0.0058793014063129
 48 -0.0019113324201640684
 49 -0.0014045439961727253
 50 0.0033766531734190433
 51 -9.3645480550656182e-09
 52 2.8634572696751171e-08
 53 -6.847103287336404e-08
 54 4.3311206915190581e-08
 55 -1.1902279258317258e-08
 56 7.8918238618857182e-10
 57 -1.3270798206000632e-08
 58 -1.3588175200144898e-07
 59 -1.2207695409223777e-07
 60 1.0004770112821964e-07
 61 -6.4383353215559987e-06
 62 3.3519317344385229e-05
 63 -2.9735752809112491e-05
 64 -4.0717618966484848e-05
 65 -9.4126205015963773e-06
 66 -8.722220977245578e-07
 67 1.1184207321840922e-05
 68 -7.564671354721433e-06
 69 -2.3168038260116489e-06
 70 -2.56563355877505e-06
 71 2.0865709078691228e-06
 72 -1.1603660149062589e-05
 73 -2.6552620843863189e-06
 74 1.0443222126330521e-05
 75 -1.0554798336308378e-05
 76 2.0249365165134203e-06
 77 -2.4599372024287393e-08
 78 -1.5434202530721511e-06
 79 -7.1650019280840522e-06
 80 -4.0083143008639872e-06
Sym= A
Ene= -20.328540155698818
Spin= Alpha
Occup= 2
 1 5.9761035675539318e-07
 2 -4.9404455343361395e-09
 3 4.1068371419556143e-07
 4 -5.7203649862059376e-08
 5 -2.6128527094243731e-08
 6 2.4074609679815111e-08
 7 -2.2728720977679105e-08
 8 -1.1989471592399256e-08
 9 -8.6643106881386517e-08
 10 -1.9436696209983173e-08
 11 4.1712925007308688e-05
 12 -0.00015895829732400033
 13 5.5835768997793676e-05
 14 -7.2339698145367512e-05
 15 -9.2276859404224294e-05
 16 2.7996884359891424e-06
 17 2.3767973586758126e-07
 18 -5.3807091362649334e-08
 19 1.2895024802366938e-07
 20 -2.7393938114067995e-08
 21 -1.8880827312074095e-06
 22 -3.9440404464027119e-08
 23 6.1567665445559118e-09
 24 3.3922613182010841e-08
 25 -4.3579924014110205e-09
 26 6.0644568592903362e-08
 27 -3.5261465216046109e-09
 28 -2.2260000192945995e-09
 29 -4.3410245567063232e-09
 30 -1.1676236723366998e-09
 31 0.00097678595089627489
 32 -1.5797532569545875e-05
 33 0.00017574122100241785
 34 -0.00013929069579235367
 35 -8.1139044894428382e-05
 36 2.8090541926283559e-07
 37 7.1331512325748989e-09
 38 -6.4409788488547538e-09
 39 -1.7826132902697828e-09
 40 2.1268071765528918e-09
 41 -0.99444883879892754
 42 -0.024299752713932393
 43 -0.0011578358620584414
 44 0.0019213445629382708
 45 0.0029158919210544379
 46 4.969808406170631e-09
 47 -3.1568440671866232e-09
 48 -7.1545872190039925e-09
 49 -3.3516630679403595e-08
 50 3.375001174394526e-08
 51 2.1592124125317412e-09
 52 -1.1286221527121408e-08
 53 8.6047513765978231e-09
 54 1.9859986933798684e-09
 55 -5.199540439426286e-09
 56 -0.00049411491984121311
 57 0.0058813162449487706
 58 -0.0012793096598748693
 59 0.0021517550788613914
 60 0.003287268906954216
 61 -1.2268021585808836e-06
 62 1.5150536291305217e-05
 63 -8.8365087099378029e-06
 64 3.7631397178672647e-06
 65 -3.9177287778783057e-06
 66 1.1595628465993317e-08
 67 -2.7841186333427657e-07
 68 3.6146593597071632e-07
 69 -5.5443778768530312e-07
 70 4.9987840784296062e-08
 71 -8.6691369940304804e-06
 72 4.386186255363753e-05
 73 -5.6644665647957552e-05
 74 3.3140658598661363e-05
 75 -2.7534896669930212e-06
 76 -1.6740395490128391e-06
 77 5.6852125348584841e-07
 78 1.4816676326308287e-07
 79 -5.8987387589254023e-06
 80 -6.8929471099829845e-06
Sym= A
Ene= -20.32428623212116
Spin= Alpha
Occup= 2
 1 -1.233700142089819e-07
 2 1.1305134598490856e-07
 3 1.7021332595181307e-07
 4 2.0507860351939335e-07
 5 2.3191808836168712e-07
 6 -4.0972516943206679e-05
 7 0.000159019479749596
 8 0.00012151824564654644
 9 -3.9235148674721663e-05
 10 2.3452480961125342e-05
 11 3.155865993857373e-07
 12 -1.3232450196898815e-07
 13 -1.3081131827166661e-07
 14 -3.8571460487060207e-08
 15 -3.7881899866867678e-08
 16 -3.1402267186220531e-06
 17 -1.6825087637562506e-07
 18 -5.547639903014101e-08
 19 -9.6563480185614284e-08
 20 3.2060663320357397e-08
 21 2.3997752994157066e-07
 22 -2.4769530773215262e-08
 23 -6.653635914043339e-09
 24 2.6932411516353456e-09
 25 1.4051002953545996e-08
 26 -0.0009763556833301063
 27 1.576507774605964e-05
 28 0.00022884158249652543
 29 4.2283499381266972e-05
 30 5.2476929016713036e-05
 31 8.1880584482445287e-07
 32 4.6349031668251788e-08
 33 1.5242197438312391e-08
 34 -1.6934395047448392e-08
 35 -7.1166723315132618e-09
 36 0.99444782084131733
 37 0.024303500479077061
 38 -0.0032542045504277209
 39 0.001609884268638475
 40 -0.00058937506083327554
 41 2.8191104831956018e-07
 42 7.9835164766378191e-09
 43 -4.6271869017606646e-09
 44 2.3131605454869419e-09
 45 -2.9134487020176028e-09
 46 1.4332749650319832e-08
 47 -8.1068422186944371e-08
 48 -3.673538222139644e-08
 49 -8.1829826983740878e-08
 50 8.3135132063544477e-08
 51 0.00049414360049769481
 52 -0.0058813058291571872
 53 -0.0036459164660161483
 54 0.0018300736767236023
 55 -0.00065722902009416554
 56 -2.2620975667175629e-09
 57 8.9402796280750683e-09
 58 1.5518567799126682e-08
 59 -6.3619076596426252e-09
 60 -3.3653134486467777e-09
 61 1.2198858312654397e-06
 62 -1.50115504067138e-05
 63 -5.3962249396085661e-06
 64 -8.4489752434501082e-06
 65 -1.6585514278051139e-06
 66 8.7185545650234671e-06
 67 -4.424534811491368e-05
 68 -5.2592773876679495e-05
 69 -3.6582293630449229e-05
 70 -1.3893273239498692e-05
 71 -7.6583920553406799e-08
 72 1.276466385237646e-06
 73 7.1153956236226501e-07
 74 -4.2365376344468547e-07
 75 3.2267664436854814e-08
 76 2.3684127756001469e-07
 77 6.3888856253412583e-06
 78 7.0197934608478424e-06
 79 -3.698610438653948e-07
 80 -2.3887497984796842e-07
Sym= A
Ene= -20.317647385182699
Spin= Alpha
Occup= 2
 1 8.3982896095955925e-06
 2 -4.7710782892567902e-06
 3 2.2319087687513312e-06
 4 -2.6098887451701108e-06
 5 2.0783197225661063e-06
 6 1.5192756546683183e-06
 7 -1.1016664335035311e-06
 8 2.6755233265094575e-07
 9 -1.2269997034745211e-06
 10 -1.3729469194368772e-07
 11 0.00019747733372709906
 12 -0.00030363140854749483
 13 8.9051630180300668e-05
 14 1.3859796890307178e-05
 15 0.00016151960080245352
 16 -0.0011186421452557024
 17 -3.3274725604889426e-05
 18 2.1797205863497522e-06
 19 -6.1622456582434079e-06
 20 -1.6811729781392041e-06
 21 -3.5920672993104951e-06
 22 1.4266826191242673e-07
 23 7.7515689120332201e-09
 24 4.7687430294700295e-07
 25 -1.1251593441360171e-07
 26 2.7930044934287463e-06
 27 1.1843176194730885e-07
 28 -2.0268774061915629e-08
 29 3.5487003524864273e-08
 30 -4.7655996764919481e-08
 31 -0.99441934550242894
 32 -0.024433641550961886
 33 -0.0016336646974425446
 34 -0.00041018836722200164
 35 -0.0032899349019202204
 36 8.2656065725982033e-07
 37 -4.5050699869274118e-09
 38 1.6973029054933794e-08
 39 8.6754854913438303e-09
 40 1.2413916830578652e-08
 41 -0.00096544910013919268
 42 -6.7980510997961863e-05
 43 0.00018819831081883995
 44 -5.3437964304652984e-05
 45 0.00014007989037346353
 46 3.4643821811996709e-07
 47 3.8953701834098207e-07
 48 2.2895280970579909e-06
 49 -5.2074674527879776e-06
 50 -1.8723864608429939e-06
 51 -4.8395268231499634e-09
 52 6.9485073805452408e-08
 53 -2.4208161103749654e-08
 54 -7.2495430848034444e-08
 55 -4.5398839783414996e-08
 56 -0.0004972310363214839
 57 0.0059393656101335325
 58 -0.00177675889599661
 59 -0.00049532712726077033
 60 -0.0036928086356640896
 61 -1.023794918913524e-05
 62 0.00011671586098801036
 63 -6.5677739843988253e-05
 64 3.0077874473757177e-05
 65 -1.5889049332914323e-05
 66 1.9967187152975484e-07
 67 -1.5988677704880695e-06
 68 7.9456914320284733e-06
 69 -9.7803445670680521e-07
 70 1.0741053243067816e-06
 71 -3.4106093717731873e-05
 72 3.7582812866429963e-05
 73 -0.00031037685424548274
 74 0.00023492332672282647
 75 5.6754225775173736e-05
 76 -1.2284585250831297e-05
 77 -1.3796965043682066e-06
 78 -7.7118092968175844e-06
 79 0.0002760027814338456
 80 0.00019557497843276754
Sym= A
Ene= -20.316218209560564
Spin= Alpha
Occup= 2
 1 -0.00012103293364336041
 2 0.00027516765505049712
 3 -6.0889914994329388e-05
 4 -3.1873683142004307e-05
 5 -0.00014510868092828481
 6 -5.832970799304817e-06
 7 1.5731892326260356e-06
 8 -1.702200563899383e-06
 9 -3.7434480965115101e-06
 10 -1.8566177867858705e-06
 11 4.289974139169694e-05
 12 -2.4682874754622021e-05
 13 -1.363833768724303e-06
 14 3.9252077273794605e-06
 15 1.616065993631532e-05
 16 0.99441531556713791
 17 0.024453058344850179
 18 0.00052625263228288366
 19 0.00093958082303883389
 20 0.0035327191253354401
 21 0.00061921037756145067
 22 5.6900251784705851e-05
 23 -0.00012369939004152133
 24 -0.00013695025203252446
 25 -0.00015417539163477072
 26 -8.3529933606200506e-05
 27 -2.9802293773053732e-06
 28 7.8083707794735207e-07
 29 4.7327018081054702e-07
 30 2.193574793853733e-07
 31 -0.0011210663224858431
 32 -2.0543934544442629e-05
 33 -9.6482626652183651e-07
 34 -6.7876205177003343e-06
 35 -5.7222703204752365e-06
 36 3.1004388168035397e-06
 37 -1.4028136055727091e-07
 38 9.8976314107275531e-08
 39 -4.2589946064666706e-08
 40 4.5737293119518796e-09
 41 1.757811555005144e-06
 42 -4.4551938208619451e-08
 43 2.4267102443622721e-07
 44 2.8775274569858367e-07
 45 -1.8309058048642489e-08
 46 0.00049634565754080612
 47 -0.0059352779780467886
 48 0.00055431348536184519
 49 0.001001031597114517
 50 0.00396986830432388
 51 1.3789641558617158e-09
 52 3.6230322774614271e-07
 53 2.5326406414183551e-07
 54 -1.5541642732410255e-07
 55 1.5038220198618224e-07
 56 -8.7280331127724e-07
 57 9.3869367119897543e-06
 58 -2.4546123892623067e-06
 59 -3.2575821797940102e-06
 60 -4.3528041127484482e-06
 61 2.6359082365426595e-05
 62 -3.3591718252699962e-05
 63 0.00019538077019939796
 64 0.00021786980162960936
 65 -5.0740459778287131e-05
 66 6.7804900717184625e-06
 67 -8.1766024593904918e-05
 68 4.7848756876542418e-05
 69 2.0068545860132958e-05
 70 1.1361409096061377e-05
 71 -2.216382155763747e-05
 72 0.00025138476831417368
 73 -0.00011114916275373963
 74 -5.4478656214532965e-05
 75 -6.1455398880188564e-06
 76 -0.00035215089758731987
 77 9.1498717398686216e-06
 78 1.1301477475416646e-05
 79 -0.00049649112265497727
 80 -6.9728548686500715e-06
Sym= A
Ene= -20.313446028621236
Spin= Alpha
Occup= 2
 1 1.1893083907130826e-05
 2 -6.109741774442453e-06
 3 -2.4790362614780879e-06
 4 -4.1060372678429231e-06
 5 1.5271000656982142e-07
 6 0.00019596960904999516
 7 -0.00030433095480119667
 8 3.2408416928708834e-05
 9 -0.00018274502031011318
 10 -6.1856438786952843e-06
 11 6.874695389766307e-06
 12 -2.0023863326300295e-06
 13 -2.3128318924700315e-06
 14 -3.7449956666391532e-07
 15 -1.1746352592404471e-06
 16 -8.3869464842695782e-05
 17 -1.2213203712694513e-06
 18 4.3064588086511556e-07
 19 6.5549634787275511e-07
 20 -6.4331443708361656e-07
 21 -1.5009250374303855e-06
 22 2.0092887333377765e-07
 23 1.2068411882728072e-07
 24 2.9161145215141765e-08
 25 -8.1222711188549609e-08
 26 -0.99441898424556252
 27 -0.024438453790860688
 28 -0.00084514561517678305
 29 0.0035985087226882428
 30 7.5343173776059962e-05
 31 -2.7164043311123052e-06
 32 1.3552877285851828e-08
 33 4.7885930338700941e-08
 34 4.7787492320005382e-08
 35 -3.2198305905566712e-08
 36 -0.00096499988769775148
 37 -6.8047316964848798e-05
 38 -7.830763206585073e-05
 39 -0.00022512653610103463
 40 -3.2984661784710156e-05
 41 -6.1093265681941949e-08
 42 -3.1852925936435455e-08
 43 1.3313030220222198e-08
 44 -1.4296348790291801e-08
 45 2.6709713514847877e-08
 46 -1.0461931980763417e-07
 47 8.2593388164712341e-07
 48 -1.629006983437653e-07
 49 3.3094993806396557e-07
 50 -1.1403005341624765e-06
 51 -0.00049733263863507848
 52 0.0059425243670816925
 53 -0.0010019180271749455
 54 0.0040052208511431875
 55 6.8865431016472932e-05
 56 2.591121641689698e-08
 57 -2.7726959695757595e-07
 58 -1.6125982538694149e-07
 59 2.4267363812706649e-07
 60 4.9509514791102206e-08
 61 -1.0131429904519347e-05
 62 0.0001164996785084681
 63 5.086969825485654e-05
 64 5.1443045952239384e-05
 65 1.3204087163824719e-05
 66 -3.6819609347901565e-05
 67 6.1742533057057743e-05
 68 0.00035621308280777385
 69 0.00015940870331147827
 70 8.5967512777657953e-05
 71 1.441594448758042e-07
 72 -3.0255910413517443e-06
 73 -5.2618693923008834e-06
 74 -1.4668877325630671e-07
 75 -3.3431799798586211e-06
 76 -1.2259704658449381e-05
 77 0.00021366271927067762
 78 0.000209136527130626
 79 1.7104726313175826e-10
 80 -7.8027979385497659e-06
Sym= A
Ene= -15.73960279368103
Spin= Alpha
Occup= 2
 1 5.7304889651424787e-08
 2 9.6826601276003214e-07
 3 1.8041448857130174e-07
 4 2.0189240925909749e-06
 5 -2.5279273478558931e-06
 6 7.2809303475630111e-10
 7 1.0506471729643599e-07
 8 8.428382299724424e-08
 9 4.1153441892368553e-07
 10 2.1704466688591412e-07
 11 0.0005105020484908792
 12 -0.0035650406371411439
 13 0.0018463367218154308
 14 -0.0010828010411099501
 15 4.6415651773292518e-05
 16 -1.789802156853439e-07
 17 -2.101220311264575e-06
 18 -1.231808449766959e-06
 19 1.4091928207157333e-06
 20 -2.601482626029552e-06
 21 3.5029669903978243e-07
 22 -4.0131268485615927e-06
 23 -6.2425734641215116e-07
 24 -6.7052086941197901e-07
 25 1.5549034413843313e-06
 26 -2.9076618264571542e-08
 27 1.2832269118221579e-07
 28 -1.336366451845216e-07
 29 -2.6820826399393243e-08
 30 9.0014349286123756e-08
 31 0.00044248864484397986
 32 -0.0051757011892558831
 33 -0.00090475265352291806
 34 -0.0003305581609258073
 35 -0.0020642027731623408
 36 -3.7314303790933478e-09
 37 1.6117900591776889e-08
 38 -2.7950538203152728e-08
 39 -1.2469286147782747e-08
 40 -9.5735864980473102e-09
 41 0.00044037175488626998
 42 -0.0050881634987060172
 43 -0.00062650555887631271
 44 0.0011388788845335257
 45 0.0018124160261705768
 46 0.00075771259097772705
 47 2.4603300847056361e-05
 48 -1.8859864857386638e-06
 49 2.0955601769227783e-06
 50 -1.5522392371377378e-06
 51 -4.4629186747440505e-07
 52 -5.1365840938316643e-08
 53 1.9089878736154933e-08
 54 6.5512582709181463e-08
 55 7.746531151573777e-08
 56 0.99388364998038026
 57 0.027818928231649907
 58 -0.00055124232656665866
 59 0.00023869526364110355
 60 -0.00022043565214318727
 61 7.6670449636034171e-06
 62 -8.1301748945078467e-05
 63 4.4633085774476583e-05
 64 -2.0208227217355899e-05
 65 1.0887467435201608e-05
 66 -5.3574966967125104e-07
 67 7.2901992999104166e-06
 68 -3.6438065520944321e-06
 69 2.5996587913505124e-06
 70 1.7889674158310005e-07
 71 4.7014888122093955e-05
 72 -0.00016903053075105262
 73 0.00025228799366500479
 74 -0.00021350794064415039
 75 -0.00014325922539620145
 76 1.8582673031821063e-06
 77 -1.0955081315878394e-05
 78 2.3484757470052658e-06
 79 -0.00011159160474906926
 80 -9.8414393433251049e-05
Sym= A
Ene= -15.738644551799942
Spin= Alpha
Occup= 2
 1 0.00051028458160916855
 2 -0.0035803269150533092
 3 0.0014993547050159359
 4 0.0015236167236585413
 5 0.00014462933241040786
 6 -4.4137961181518574e-07
 7 4.4992004717310519e-06
 8 -2.5682423031307862e-06
 9 5.9298518312409648e-07
 10 -2.4380048847484279e-06
 11 -6.4513735384704829e-06
 12 3.874328817913403e-05
 13 7.6053402760375912e-06
 14 -2.1880570314274702e-05
 15 -1.1404408571255619e-05
 16 0.0004424878552736905
 17 -0.0051806423821594699
 18 -0.00024944389736523791
 19 -0.00047777430628799522
 20 -0.0022195504973141905
 21 0.0004412655079934014
 22 -0.0050954034576301231
 23 -0.0009874410081720103
 24 -0.00071677723381392486
 25 0.0018723296470743583
 26 1.2486375437683467e-07
 27 -4.526116091897953e-07
 28 5.516330932372332e-07
 29 1.0038804166688942e-07
 30 3.9794029808339071e-08
 31 -1.9736397077955276e-06
 32 1.1149739830379805e-05
 33 2.2303110266783544e-06
 34 -5.8201475185940422e-06
 35 -3.3420847106056459e-08
 36 1.8529144514973757e-08
 37 -1.3028328256134945e-07
 38 9.8918540166696017e-08
 39 -7.0932922109807894e-09
 40 1.9146649544912048e-08
 41 -3.5127280491802993e-07
 42 3.8248562059033596e-06
 43 7.3425536217764861e-07
 44 -4.9917448336067182e-07
 45 -1.5021535824472293e-06
 46 0.99387398901964741
 47 0.027868786939925248
 48 -0.00043288009580889084
 49 -0.00038892598194179028
 50 -0.00026845559766161824
 51 -1.2325191790187452e-05
 52 -5.3036539910994614e-07
 53 3.822868405224146e-07
 54 -4.6953761881156873e-07
 55 1.6347698889550288e-07
 56 -0.00075910415346235418
 57 -1.6769356911448409e-05
 58 7.5350345006303544e-07
 59 -3.7381967278338223e-06
 60 7.7418708162947441e-07
 61 5.287351359092228e-05
 62 -0.00021531502564412029
 63 0.00020917464454895361
 64 0.00028544121998870953
 65 -9.1206023308962325e-05
 66 8.259750993180881e-06
 67 -8.6062111080841171e-05
 68 3.7974180642257743e-05
 69 3.4192162165819565e-05
 70 1.5169888911114628e-05
 71 1.0647833125564435e-05
 72 7.692359416919866e-05
 73 -3.975582267447958e-05
 74 0.00011337178759191109
 75 -0.00017414443928153865
 76 -3.6107203711616652e-05
 77 3.289507514401234e-06
 78 -5.5266738649070724e-08
 79 -0.00038433797979980466
 80 -8.9832242812695274e-05
Sym= A
Ene= -15.73550997674157
Spin= Alpha
Occup= 2
 1 -5.2663768955506576e-07
 2 4.6610967485609736e-06
 3 2.3411037399921793e-07
 4 3.6756180051456151e-06
 5 -6.0541648247945667e-07
 6 0.00051019041004001821
 7 -0.0035621157974308794
 8 -0.0017408054964376599
 9 -0.0011549327063713789
 10 -0.00045913519535663479
 11 -2.6770704350897556e-07
 12 1.4547718046350848e-06
 13 7.2078386083502567e-07
 14 -1.3061211320223448e-07
 15 2.1978185388380617e-07
 16 1.1761104898289597e-07
 17 -5.0322539991694368e-07
 18 -2.7461994431526165e-07
 19 -3.8170785705816078e-07
 20 9.9939235825331763e-08
 21 2.3796528097395865e-08
 22 -1.9612246874893752e-07
 23 -1.1477039004110026e-07
 24 -2.7410470397788711e-08
 25 6.9592213243832579e-08
 26 0.00044261806107341421
 27 -0.0051784252581182043
 28 -0.00064594935838435674
 29 0.0021848359321198357
 30 1.6647599737319328e-05
 31 5.9280965731157032e-09
 32 -3.5177121856958069e-08
 33 -1.8426801747331058e-08
 34 8.1861774180365127e-10
 35 1.9463110757561488e-08
 36 0.00044058532610848165
 37 -0.0050887789420234857
 38 0.001934056528805142