[Molden Format]
[Title]
generated by GANSU
[Atoms] (Angs)
C 1 6 0 0 1.35615
C 2 6 0 1.1244 0.27219
C 3 6 1.24517 0.66952 -0.52104
C 4 6 1.24517 -0.66952 -0.52104
C 5 6 0 -1.1244 0.27219
C 6 6 -1.24517 -0.66952 -0.52104
C 7 6 -1.24517 0.66952 -0.52104
H 8 1 0 2.16208 0.61281
H 9 1 -0.90031 0 1.98015
H 10 1 0 -2.16208 0.61281
H 11 1 0.90031 0 1.98015
H 12 1 1.93626 -1.33994 -1.02106
H 13 1 1.93626 1.33994 -1.02106
H 14 1 -1.93626 -1.33994 -1.02106
H 15 1 -1.93626 1.33994 -1.02106
[GTO]
1 0
 s 3 1.00
    13.0451 0.535328
    3.53051 0.444635
    71.6168 0.154329
 s 3 1.00
    2.94125 -0.0999672
    0.683483 0.399513
    0.22229 0.700115
 p 3 1.00
    2.94125 0.155916
    0.683483 0.607684
    0.22229 0.391957

2 0
 s 3 1.00
    71.6168 0.154329
    3.53051 0.444635
    13.0451 0.535328
 s 3 1.00
    2.94125 -0.0999672
    0.683483 0.399513
    0.22229 0.700115
 p 3 1.00
    2.94125 0.155916
    0.683483 0.607684
    0.22229 0.391957

3 0
 s 3 1.00
    3.53051 0.444635
    13.0451 0.535328
    71.6168 0.154329
 s 3 1.00
    0.683483 0.399513
    2.94125 -0.0999672
    0.22229 0.700115
 p 3 1.00
    2.94125 0.155916
    0.683483 0.607684
    0.22229 0.391957

4 0
 s 3 1.00
    71.6168 0.154329
    13.0451 0.535328
    3.53051 0.444635
 s 3 1.00
    2.94125 -0.0999672
    0.683483 0.399513
    0.22229 0.700115
 p 3 1.00
    0.683483 0.607684
    2.94125 0.155916
    0.22229 0.391957

5 0
 s 3 1.00
    3.53051 0.444635
    13.0451 0.535328
    71.6168 0.154329
 s 3 1.00
    0.22229 0.700115
    0.683483 0.399513
    2.94125 -0.0999672
 p 3 1.00
    2.94125 0.155916
    0.683483 0.607684
    0.22229 0.391957

6 0
 s 3 1.00
    71.6168 0.154329
    13.0451 0.535328
    3.53051 0.444635
 s 3 1.00
    0.22229 0.700115
    0.683483 0.399513
    2.94125 -0.0999672
 p 3 1.00
    2.94125 0.155916
    0.683483 0.607684
    0.22229 0.391957

7 0
 s 3 1.00
    71.6168 0.154329
    13.0451 0.535328
    3.53051 0.444635
 s 3 1.00
    0.22229 0.700115
    0.683483 0.399513
    2.94125 -0.0999672
 p 3 1.00
    0.22229 0.391957
    2.94125 0.155916
    0.683483 0.607684

8 0
 s 3 1.00
    0.623914 0.535328
    0.168855 0.444635
    3.42525 0.154329

9 0
 s 3 1.00
    3.42525 0.154329
    0.623914 0.535328
    0.168855 0.444635

10 0
 s 3 1.00
    0.168855 0.444635
    0.623914 0.535328
    3.42525 0.154329

11 0
 s 3 1.00
    0.623914 0.535328
    0.168855 0.444635
    3.42525 0.154329

12 0
 s 3 1.00
    3.42525 0.154329
    0.623914 0.535328
    0.168855 0.444635

13 0
 s 3 1.00
    0.623914 0.535328
    0.168855 0.444635
    3.42525 0.154329

14 0
 s 3 1.00
    0.623914 0.535328
    0.168855 0.444635
    3.42525 0.154329

15 0
 s 3 1.00
    3.42525 0.154329
    0.623914 0.535328
    0.168855 0.444635

[MO]
Sym= A
Ene= -11.0475
Spin= Alpha
Occup= 2
 1 -8.7299114321494556e-14
 2 2.1794103128637919e-15
 3 2.8934361407161529e-17
 4 0.0037955379700795951
 5 -2.0267176750583607e-15
 6 -0.70139517502297588
 7 -0.025964312352904594
 8 -1.7013048365725925e-16
 9 0.0010096337755585256
 10 0.00031302770156551115
 11 0.0015136180939367763
 12 0.0042494320435725432
 13 -0.0020453946210365215
 14 0.00078376630148784758
 15 0.0012961388008241041
 16 -0.0015136180940471203
 17 -0.0042494320435703661
 18 0.0020453946210336458
 19 0.00078376630148680913
 20 -0.001296138800822063
 21 0.70139517502201099
 22 0.02596431235287033
 23 9.2733550989378897e-16
 24 0.0010096337755582021
 25 -0.00031302770156507297
 26 -0.0015136180938478128
 27 -0.0042494320435636354
 28 -0.0020453946210334372
 29 0.00078376630148722438
 30 -0.0012961388008213943
 31 0.0015136180939422164
 32 0.0042494320435720956
 33 0.002045394621036172
 34 0.00078376630148873706
 35 0.001296138800823183
 36 0.0046190123729333054
 37 4.9050296264731153e-16
 38 -0.0046190123729266449
 39 3.0394162229357987e-16
 40 0.00010820096042447508
 41 -0.00010820096042348557
 42 0.00010820096042343761
 43 -0.00010820096042460253
Sym= A
Ene= -11.04733228472703
Spin= Alpha
Occup= 2
 1 -0.025660046411031118
 2 -0.0084834484604900864
 3 5.0312632496663314e-17
 4 2.4537999161532221e-15
 5 0.0031278875484153429
 6 0.70125435945593817
 7 0.025755918948546813
 8 -6.8352654095708142e-17
 9 -0.00037683712965794945
 10 0.00012637643185090552
 11 -0.0025694630911261111
 12 -0.0038351608894480419
 13 0.0020277476764422172
 14 -0.00081709737567818694
 15 -0.0012246700261104473
 16 -0.0025694630910444685
 17 -0.0038351608894503699
 18 0.0020277476764452278
 19 0.00081709737567908336
 20 -0.0012246700261120569
 21 0.70125435945689907
 22 0.025755918948581695
 23 -3.5530017590012717e-16
 24 0.00037683712965907632
 25 0.00012637643185094336
 26 -0.0025694630910281751
 27 -0.0038351608894500394
 28 -0.0020277476764456706
 29 0.00081709737567902687
 30 -0.0012246700261126931
 31 -0.0025694630910285685
 32 -0.0038351608894456506
 33 -0.0020277476764422172
 34 -0.00081709737567808003
 35 -0.0012246700261107919
 36 -0.0049199637130366309
 37 0.00031236099911666047
 38 -0.0049199637130435828
 39 0.00031236099911592289
 40 1.8154572594509346e-05
 41 1.8154572594940845e-05
 42 1.8154572593702229e-05
 43 1.81545725942676e-05
Sym= A
Ene= -11.040329503586843
Spin= Alpha
Occup= 2
 1 -0.99170895179656959
 2 -0.036354987229621563
 3 -1.8037124598217675e-16
 4 -4.8284494040119274e-16
 5 0.00029169737102317062
 6 -0.019055123446654259
 7 0.0045106217025942695
 8 2.0624419925362875e-16
 9 -0.0022308675580207616
 10 0.0025881774790799121
 11 0.0017168745819547383
 12 0.0001464305651081746
 13 -5.6893502950282197e-05
 14 -0.00011450273135976069
 15 0.00027698416836699193
 16 0.0017168745819524517
 17 0.00014643056510935075
 18 -5.6893502950739032e-05
 19 0.00011450273136012294
 20 0.00027698416836735655
 21 -0.019055123446802463
 22 0.004510621702588969
 23 5.4886776779724786e-17
 24 0.0022308675580206324
 25 0.0025881774790796875
 26 0.0017168745818995921
 27 0.00014643056510770162
 28 5.6893502950794238e-05
 29 0.00011450273136013221
 30 0.00027698416836764391
 31 0.0017168745819099505
 32 0.00014643056510718641
 33 5.6893502950370667e-05
 34 -0.0001145027313599313
 35 0.00027698416836730391
 36 -7.0042263633704522e-06
 37 0.0068179100738666497
 38 -7.0042263623003159e-06
 39 0.0068179100738672196
 40 7.2903836618020768e-05
 41 7.2903836618023966e-05
 42 7.2903836618655216e-05
 43 7.2903836618481039e-05
Sym= A
Ene= -11.006495881773452
Spin= Alpha
Occup= 2
 1 -1.2825824732531348e-13
 2 -4.2137858391901169e-15
 3 0.00072085906038223862
 4 -6.9869892540346142e-16
 5 -1.0894012188403625e-14
 6 -1.0501931792711895e-13
 7 1.6657656297527826e-13
 8 0.0027873158657742889
 9 -3.0926775063485166e-14
 10 -5.7223461650398042e-14
 11 -0.49622088730661645
 12 -0.013957291512064422
 13 0.00043908791133435087
 14 -0.0010274186520728115
 15 -6.5962676272962475e-06
 16 -0.49622088729939018
 17 -0.013957291511750769
 18 0.00043908791133413506
 19 0.0010274186521133932
 20 -6.5962676263120545e-06
 21 -1.9285851114304325e-13
 22 5.9958545464807228e-14
 23 0.0027873158657854944
 24 1.7632204783003781e-14
 25 -2.5192004122866856e-14
 26 0.49622088728591174
 27 0.013957291511520352
 28 0.00043908791132903286
 29 -0.0010274186520123363
 30 6.5962676175464976e-06
 31 0.49622088727479524
 32 0.013957291511035703
 33 0.00043908791132665705
 34 0.0010274186520751601
 35 6.5962676171200784e-06
 36 -2.5052397663305473e-16
 37 -4.3878528959355583e-07
 38 4.2969831408605385e-15
 39 4.3878531011714228e-07
 40 0.0032137865733253643
 41 0.003213786573374853
 42 -0.0032137865732404678
 43 -0.0032137865731642116
Sym= A
Ene= -11.006316316571487
Spin= Alpha
Occup= 2
 1 -0.0035542814809051697
 2 -0.00012929771121484877
 3 -1.6788663485913173e-14
 4 1.7187852751338989e-16
 5 -0.00048133151849914796
 6 -0.0047076470489900712
 7 0.0050072681961566522
 8 -3.7234240042216254e-14
 9 -0.0010592161282021785
 10 -0.0018132373833056078
 11 -0.49630806456705778
 12 -0.013799144403909409
 13 0.00014649712467195453
 14 -0.0010768599492262754
 15 -0.00021089621142303351
 16 -0.49630806456552279
 17 -0.013799144403838151
 18 0.00014649712466883289
 19 0.0010768599492362418
 20 -0.00021089621142582511
 21 -0.0047076470490523071
 22 0.0050072681962386161
 23 -8.9464153635187716e-14
 24 0.0010592161282137777
 25 -0.0018132373833324822
 26 -0.49630806459713622
 27 -0.013799144404870314
 28 -0.00014649712469273868
 29 0.0010768599492308997
 30 -0.00021089621142366234
 31 -0.49630806458073523
 32 -0.013799144404150988
 33 -0.00014649712468798337
 34 -0.0010768599493256534
 35 -0.00021089621142485583
 36 8.0380455064046476e-05
 37 0.00044363135765628924
 38 8.0380455061877977e-05
 39 0.00044363135765713448
 40 0.0032295432662160185
 41 0.0032295432662270327
 42 0.0032295432664255714
 43 0.0032295432663116373
Sym= A
Ene= -11.005639541777365
Spin= Alpha
Occup= 2
 1 -3.7171539429881888e-14
 2 -1.5649532902906098e-15
 3 -1.5206249395932426e-15
 4 -3.2385502018949229e-16
 5 -4.2029113482855947e-15
 6 6.1400807847669661e-14
 7 3.5664020527374308e-14
 8 -0.002881837035632225
 9 -8.4859097185891995e-15
 10 -1.228363530160956e-14
 11 0.4959537890120459
 12 0.021807278192042909
 13 -0.00023383038677830519
 14 -0.0029086047884555478
 15 -8.0374158510809824e-05
 16 -0.49595378901907328
 17 -0.021807278192237992
 18 0.00023383038677926956
 19 -0.0029086047884398776
 20 8.0374158506954402e-05
 21 -8.9264879054409619e-14
 22 5.6749384368516039e-14
 23 0.0028818370356214016
 24 1.0705715264907342e-14
 25 -2.0335008725304999e-14
 26 0.49595378900778225
 27 0.021807278191888924
 28 0.00023383038677631278
 29 0.0029086047884459361
 30 -8.0374158510697704e-05
 31 -0.49595378901870296
 32 -0.021807278192193198
 33 -0.00023383038678085588
 34 0.0029086047884227992
 35 8.037415850692872e-05
 36 1.134970129248235e-15
 37 3.8291199880789046e-15
 38 6.8670572406929855e-17
 39 4.0452188912024126e-15
 40 0.0034008530919087611
 41 -0.0034008530918628235
 42 -0.0034008530918351264
 43 0.0034008530919055415
Sym= A
Ene= -11.005520458712292
Spin= Alpha
Occup= 2
 1 3.1928673614963872e-14
 2 8.6310780109327241e-16
 3 7.0033491637795902e-15
 4 1.1385926749866679e-06
 5 3.7034164980703504e-15
 6 0.0030406826131385021
 7 -0.0054417027497125148
 8 3.244413827760063e-14
 9 0.00075209982437131752
 10 0.0017611686039570899
 11 0.49602355093441147
 12 0.021557735580417514
 13 -6.5041911449870428e-05
 14 -0.0028276614228733283
 15 4.7797144648665323e-05
 16 -0.49602355093614836
 17 -0.021557735580469237
 18 6.5041911456003448e-05
 19 -0.002827661422870306
 20 -4.7797144646092884e-05
 21 -0.00304068261300684
 22 0.0054417027496397709
 23 1.9611185065240314e-14
 24 0.00075209982435545109
 25 -0.0017611686039300306
 26 -0.4960235509292909
 27 -0.021557735580312178
 28 -6.5041911448124537e-05
 29 -0.0028276614229031318
 30 -4.7797144644935877e-05
 31 0.49602355094590234
 32 0.021557735580777518
 33 6.5041911457997757e-05
 34 -0.0028276614228677174
 35 4.7797144648448665e-05
 36 0.00015184169484471589
 37 -2.9842914358070429e-15
 38 -0.00015184169484647216
 39 -3.5979451472062934e-15
 40 0.0033933441883635422
 41 -0.0033933441883523827
 42 0.0033933441883197998
 43 -0.003393344188428243
Sym= A
Ene= -1.1285236084961674
Spin= Alpha
Occup= 2
 1 -0.094672781943136816
 2 0.24147750131388315
 3 4.2649043676453662e-16
 4 9.7221090434293321e-16
 5 -0.058186241978186413
 6 -0.10571567125056644
 7 0.27178056907675974
 8 1.4269568815285426e-15
 9 -0.057013481885656754
 10 -0.0087594493668892923
 11 -0.08317048602469608
 12 0.20218241697830883
 13 -0.03728596336513005
 14 -0.03725131980077686
 15 0.022664277388468886
 16 -0.083170486024693985
 17 0.20218241697830078
 18 -0.037285963365129453
 19 0.037251319800776145
 20 0.0226642773884678
 21 -0.10571567125056489
 22 0.27178056907675469
 23 9.1856597307702951e-17
 24 0.057013481885656581
 25 -0.0087594493668900469
 26 -0.083170486024694332
 27 0.20218241697830239
 28 0.037285963365130181
 29 0.037251319800775569
 30 0.022664277388468854
 31 -0.083170486024694054
 32 0.20218241697830125
 33 0.037285963365129772
 34 -0.037251319800775978
 35 0.022664277388468688
 36 0.042390855413911008
 37 0.042364371580582705
 38 0.04239085541391064
 39 0.042364371580583302
 40 0.032378670543015825
 41 0.0323786705430157
 42 0.032378670543016096
 43 0.032378670543015735
Sym= A
Ene= -0.9568100769945016
Spin= Alpha
Occup= 2
 1 -1.0357380756442352e-15
 2 2.5512183835456674e-15
 3 -0.036137457701955013
 4 -3.2915366643542168e-15
 5 9.5159192710863617e-17
 6 4.9902558088030076e-15
 7 -1.5517349037162705e-14
 8 -0.091885888719893088
 9 -5.5679222878841892e-16
 10 2.1437815491080066e-15
 11 0.12736002795899382
 12 -0.34202201987062991
 13 -0.0040837713634019127
 14 0.077987676825454391
 15 -0.0071444963416710241
 16 0.12736002795898757
 17 -0.34202201987060782
 18 -0.0040837713634040533
 19 -0.077987676825457264
 20 -0.007144496341669037
 21 -5.3097299656736797e-15
 22 1.4969889857746766e-14
 23 -0.091885888719893477
 24 -1.3132485927865267e-16
 25 2.2015314021457299e-16
 26 -0.12736002795899351
 27 0.34202201987062686
 28 -0.004083771363401479
 29 0.077987676825454391
 30 0.0071444963416707665
 31 -0.12736002795898946
 32 0.3420220198706162
 33 -0.0040837713634020037
 34 -0.077987676825458763
 35 0.0071444963416693579
 36 -4.0074753111855264e-15
 37 0.017522836955272701
 38 4.6006934550632607e-15
 39 -0.017522836955272621
 40 -0.084783272184961886
 41 -0.084783272184966382
 42 0.084783272184965772
 43 0.084783272184961928
Sym= A
Ene= -0.90628946158402102
Spin= Alpha
Occup= 2
 1 -1.987132064355055e-15
 2 6.0384885174316514e-15
 3 -2.0314344057692403e-15
 4 0.10210907297190308
 5 7.6918766595339274e-16
 6 -0.14684807379084569
 7 0.43290185736430808
 8 -2.6077171143618528e-15
 9 0.014775002258297514
 10 -0.019655676161133409
 11 -0.061115066253673578
 12 0.17348512187374526
 13 -0.044079220406545876
 14 0.06179610064092609
 15 0.026107937414787341
 16 0.061115066253685298
 17 -0.17348512187377613
 18 0.044079220406544196
 19 0.061796100640916334
 20 -0.026107937414786876
 21 0.14684807379084619
 22 -0.43290185736430892
 23 -2.7735789320020949e-15
 24 0.014775002258296827
 25 0.019655676161136448
 26 0.06111506625367618
 27 -0.17348512187375167
 28 -0.044079220406545508
 29 0.061796100640925215
 30 -0.026107937414786925
 31 -0.061115066253682362
 32 0.17348512187376733
 33 0.044079220406544627
 34 0.061796100640917798
 35 0.026107937414787317
 36 0.13435895387793109
 37 2.4978698836501633e-15
 38 -0.13435895387793087
 39 1.1352437694171935e-15
 40 -0.055427148714654637
 41 0.055427148714645845
 42 -0.055427148714648045
 43 0.055427148714651479
Sym= A
Ene= -0.8952218899776121
Spin= Alpha
Occup= 2
 1 0.1689045363305986
 2 -0.49618542939786986
 3 -3.5158114808757217e-16
 4 5.7658100900910305e-16
 5 -0.0041113718961655957
 6 0.035820827112522421
 7 -0.1031766335324892
 8 5.3459794722988705e-16
 9 0.02844446183399247
 10 -0.10251685682954727
 11 -0.081489540400872071
 12 0.2280402615065435
 13 0.013898828941409936
 14 -0.054685391948792926
 15 -0.032763047472147561
 16 -0.08148954040086899
 17 0.22804026150653325
 18 0.013898828941410821
 19 0.054685391948794966
 20 -0.032763047472148379
 21 0.035820827112526162
 22 -0.10317663353249984
 23 -7.0599062784960039e-17
 24 -0.028444461833990135
 25 -0.10251685682954537
 26 -0.081489540400870447
 27 0.22804026150653822
 28 -0.013898828941411626
 29 0.054685391948793412
 30 -0.032763047472149025
 31 -0.081489540400871405
 32 0.22804026150654075
 33 -0.013898828941409912
 34 -0.054685391948793217
 35 -0.03276304747214772
 36 -0.035585274380748329
 37 -0.14582126577629256
 38 -0.035585274380751382
 39 -0.14582126577629301
 40 0.070975746807453846
 41 0.070975746807456344
 42 0.070975746807455331
 43 0.070975746807455345
Sym= A
Ene= -0.7273666832521144
Spin= Alpha
Occup= 2
 1 -0.10329557944124483
 2 0.32761523549145083
 3 9.0374512333720726e-16
 4 2.3831621654211542e-15
 5 0.13897525131586622
 6 0.10043834125564201
 7 -0.31993968010160678
 8 -1.4750271179306441e-15
 9 -0.082384619404164791
 10 0.045803252901508287
 11 -0.037681462303734148
 12 0.10990974063229748
 13 0.098729530781057437
 14 -0.085046968267402601
 15 -0.04866183649007514
 16 -0.037681462303737076
 17 0.10990974063230716
 18 0.098729530781056243
 19 0.085046968267399714
 20 -0.048661836490075792
 21 0.10043834125564252
 22 -0.31993968010160789
 23 3.1155247825096345e-15
 24 0.082384619404166567
 25 0.045803252901508558
 26 -0.037681462303735029
 27 0.10990974063230102
 28 -0.098729530781058519
 29 0.085046968267399964
 30 -0.048661836490077319
 31 -0.03768146230373598
 32 0.10990974063230426
 33 -0.098729530781056341
 34 -0.08504696826739902
 35 -0.048661836490075411
 36 -0.16897125494064583
 37 0.17973018765626547
 38 -0.1689712549406463
 39 0.179730187656267
 40 0.068510082821990226
 41 0.068510082821985063
 42 0.068510082821988338
 43 0.068510082821986354
Sym= A
Ene= -0.70923179060490138
Spin= Alpha
Occup= 2
 1 1.8620940044945783e-15
 2 -5.9820678924986114e-15
 3 -4.3067982056519664e-17
 4 2.1837547783320012e-16
 5 -6.7217458252496208e-15
 6 1.3797123955243533e-16
 7 -9.0895002192600598e-16
 8 -0.14721988405218306
 9 -6.4526604043593836e-15
 10 -2.8998018875487871e-15
 11 0.09682485576427062
 12 -0.30121829004593448
 13 -0.022982084593096697
 14 -0.12120956509872953
 15 0.008322644673162842
 16 -0.096824855764270523
 17 0.30121829004593181
 18 0.022982084593087971
 19 -0.12120956509871599
 20 -0.0083226446731595616
 21 -5.3819223937368819e-16
 22 1.6860423826396434e-15
 23 0.14721988405218378
 24 6.907445251117266e-15
 25 -1.6709866429814911e-15
 26 0.096824855764272175
 27 -0.30121829004593953
 28 0.022982084593100447
 29 0.12120956509873256
 30 0.0083226446731650226
 31 -0.096824855764271189
 32 0.30121829004593453
 33 -0.022982084593086812
 34 0.12120956509871569
 35 -0.0083226446731587411
 36 -6.5801179234947466e-15
 37 -5.3806259814198849e-15
 38 -4.3310452420429968e-15
 39 -5.661843884401256e-15
 40 0.19548409898606706
 41 -0.19548409898607819
 42 -0.19548409898608468
 43 0.19548409898606653
Sym= A
Ene= -0.65847375454830914
Spin= Alpha
Occup= 2
 1 0.0097418157665478001
 2 -0.034010245620609898
 3 -2.0269491483335338e-15
 4 2.7835587615958321e-15
 5 -0.14596897769635411
 6 0.02166429890331667
 7 -0.074166075302962098
 8 6.2264729504037168e-15
 9 -0.21705098846177287
 10 -0.044755666783231701
 11 0.011829996124636135
 12 -0.048781208077495593
 13 -0.10585052915642235
 14 -0.11860601835695218
 15 0.054772787863499962
 16 0.011829996124642752
 17 -0.048781208077515743
 18 -0.10585052915642376
 19 0.11860601835696005
 20 0.054772787863498471
 21 0.021664298903317579
 22 -0.074166075302964513
 23 -9.5658667828605421e-15
 24 0.21705098846177528
 25 -0.044755666783235476
 26 0.011829996124634942
 27 -0.048781208077492332
 28 0.10585052915642605
 29 0.11860601835695211
 30 0.054772787863501385
 31 0.011829996124644433
 32 -0.048781208077520795
 33 0.10585052915642602
 34 -0.11860601835696361
 35 0.054772787863502044
 36 -0.20920219620691197
 37 -0.084205852156425648
 38 -0.20920219620691635
 39 -0.084205852156428729
 40 -0.15094723894650955
 41 -0.15094723894649723
 42 -0.15094723894649645
 43 -0.15094723894651788
Sym= A
Ene= -0.64289434667723711
Spin= Alpha
Occup= 2
 1 6.76674035809645e-16
 2 -2.0151148072261699e-15
 3 8.6825653516761861e-16
 4 0.1454317463556726
 5 -1.2601511108923983e-16
 6 -0.061053183458899846
 7 0.20085671440113231
 8 1.5404144506003766e-16
 9 0.054353647604927717
 10 0.13408620870042445
 11 0.071721078369965552
 12 -0.22994639199642147
 13 -0.058686156755095552
 14 -0.096769761429577203
 15 0.058127463173482399
 16 -0.071721078369965968
 17 0.22994639199642156
 18 0.058686156755091493
 19 -0.09676976142956692
 20 -0.058127463173476848
 21 0.061053183458898125
 22 -0.2008567144011259
 23 3.2464536445868718e-15
 24 0.054353647604923984
 25 -0.13408620870042412
 26 -0.071721078369964095
 27 0.22994639199641756
 28 -0.058686156755098251
 29 -0.096769761429581366
 30 -0.058127463173483884
 31 0.071721078369965288
 32 -0.229946391996419
 33 0.058686156755090209
 34 -0.096769761429561077
 35 0.05812746317347587
 36 0.16220535703493608
 37 -1.6321993704994477e-15
 38 -0.1622053570349308
 39 -7.298735709678077e-16
 40 0.20936135666117064
 41 -0.20936135666118044
 42 0.20936135666118072
 43 -0.20936135666116434
Sym= A
Ene= -0.60600187634160707
Spin= Alpha
Occup= 2
 1 4.2132896955105391e-16
 2 -1.1803148621930141e-15
 3 0.27324121753741143
 4 -2.4124864655031104e-15
 5 -2.6945039723617198e-15
 6 1.0502208507006069e-15
 7 -3.6987905568128625e-15
 8 0.15459928760587421
 9 -4.414608821475541e-15
 10 -7.1757900854106658e-15
 11 0.008571950395571272
 12 -0.029782147361227907
 13 -0.12041583696233812
 14 -0.054665680782487784
 15 0.14236238679696017
 16 0.0085719503955736815
 17 -0.029782147361236931
 18 -0.12041583696233782
 19 0.054665680782489921
 20 0.14236238679696023
 21 -1.1926226239160869e-15
 22 4.0542682267604337e-15
 23 0.15459928760587649
 24 1.6878389797206054e-17
 25 5.1009251170246043e-15
 26 -0.0085719503955698287
 27 0.029782147361224864
 28 -0.12041583696233725
 29 -0.054665680782486993
 30 -0.14236238679695845
 31 -0.0085719503955738376
 32 0.029782147361236772
 33 -0.12041583696233456
 34 0.054665680782491878
 35 -0.14236238679695767
 36 -8.7921157316550544e-15
 37 -0.20223131577097336
 38 3.7148431889585218e-15
 39 0.20223131577097142
 40 -0.16796856366568591
 41 -0.1679685636656813
 42 0.16796856366567664
 43 0.1679685636656853
Sym= A
Ene= -0.52606453491007232
Spin= Alpha
Occup= 2
 1 7.6774307043962865e-17
 2 -2.127350207095992e-17
 3 0.25184917518573208
 4 6.0702841153940847e-15
 5 -1.566050766407201e-15
 6 -2.8919391544280163e-16
 7 3.0519847030929697e-16
 8 0.08406008952983933
 9 3.0161629446447132e-15
 10 4.7853724426140471e-15
 11 0.017023082146448577
 12 -0.04039910553121541
 13 0.057938046958885783
 14 0.25126387960036844
 15 -0.0033429304545724145
 16 0.017023082146445396
 17 -0.040399105531204092
 18 0.057938046958887372
 19 -0.25126387960036856
 20 -0.0033429304545749355
 21 4.9360795458119387e-16
 22 -1.2352746294349253e-15
 23 0.084060089529835666
 24 3.5124712780846728e-15
 25 -3.4885625882026257e-15
 26 -0.017023082146449119
 27 0.040399105531217741
 28 0.057938046958886387
 29 0.25126387960036617
 30 0.0033429304545729089
 31 -0.017023082146445174
 32 0.04039910553120464
 33 0.057938046958884444
 34 -0.25126387960036772
 35 0.0033429304545738534
 36 3.4917447553277991e-15
 37 -0.21980355897337558
 38 -3.9369124752139768e-15
 39 0.21980355897337436
 40 0.1762600378035043
 41 0.1762600378034975
 42 -0.17626003780349495
 43 -0.17626003780350524
Sym= A
Ene= -0.48408040921912171
Spin= Alpha
Occup= 2
 1 0.010450235455354798
 2 -0.055309095442619971
 3 9.9812886045226783e-17
 4 -4.9266613404434211e-15
 5 0.38879070808442323
 6 0.0094776364370673973
 7 -0.035444149121736206
 8 6.2739724567068071e-15
 9 0.10168067899346687
 10 -0.22612480094389564
 11 -0.0079009742099276307
 12 0.032261372167945869
 13 -0.17463185540449139
 14 -0.017403125893069075
 15 -0.059975394225414119
 16 -0.0079009742099282361
 17 0.032261372167948603
 18 -0.17463185540449194
 19 0.01740312589306971
 20 -0.059975394225414876
 21 0.0094776364370662541
 22 -0.035444149121732611
 23 -2.7483784886409384e-15
 24 -0.10168067899344792
 25 -0.22612480094389689
 26 -0.0079009742099292006
 27 0.032261372167952169
 28 0.17463185540449724
 29 0.017403125893071844
 30 -0.059975394225413363
 31 -0.0079009742099268622
 32 0.032261372167942746
 33 0.17463185540448456
 34 -0.017403125893071848
 35 -0.05997539422541897
 36 0.010783739881226943
 37 0.22115476915210272
 38 0.010783739881212961
 39 0.22115476915209945
 40 -0.092892747454424912
 41 -0.092892747454426758
 42 -0.092892747454430116
 43 -0.09289274745442333
Sym= A
Ene= -0.46574970425499673
Spin= Alpha
Occup= 2
 1 -2.4060677405650189e-15
 2 9.2606513387567292e-15
 3 -2.0423529953336623e-14
 4 0.047293795423783341
 5 2.5327027510679926e-16
 6 -0.038755621738374151
 7 0.15424562257316607
 8 1.0380657275034738e-14
 9 -0.27626088078976657
 10 -0.1818402759364143
 11 -0.015683627815234514
 12 0.067116766867716809
 13 -0.15821403128266789
 14 -0.015703741092194606
 15 0.077269486260019074
 16 0.015683627815235874
 17 -0.06711676686771631
 18 0.15821403128263684
 19 -0.015703741092266431
 20 -0.077269486260022599
 21 0.03875562173837404
 22 -0.15424562257316343
 23 1.736588888920592e-14
 24 -0.27626088078973515
 25 0.18184027593637736
 26 0.01568362781523748
 27 -0.067116766867724026
 28 -0.15821403128265416
 29 -0.015703741092243151
 30 -0.077269486260037046
 31 -0.01568362781523381
 32 0.067116766867713132
 33 0.15821403128265951
 34 -0.015703741092217435
 35 0.077269486260012288
 36 -0.30630493725338509
 37 2.3345983709820378e-14
 38 0.30630493725333668
 39 -1.5818324992836648e-14
 40 0.14126369495690208
 41 -0.14126369495687202
 42 0.14126369495689967
 43 -0.1412636949568811
Sym= A
Ene= -0.46551989208566846
Spin= Alpha
Occup= 2
 1 0.026904981597651711
 2 -0.09671983306191706
 3 3.7303663494357796e-15
 4 5.7127233311390328e-15
 5 0.066554525208878432
 6 0.0030752167439902587
 7 -0.021444473594326663
 8 1.6794957987618202e-15
 9 0.18674212186914566
 10 0.1303065487692813
 11 -0.013561181393167025
 12 0.031844894505300272
 13 0.055866452594565331
 14 -0.25699039646267291
 15 0.05547543701730602
 16 -0.013561181393162322
 17 0.031844894505280531
 18 0.055866452594594426
 19 0.25699039646266869
 20 0.055475437017289957
 21 0.0030752167439977484
 22 -0.021444473594356403
 23 -2.8494510342171561e-15
 24 -0.18674212186919986
 25 0.13030654876931408
 26 -0.013561181393164395
 27 0.031844894505288622
 28 -0.055866452594594898
 29 0.25699039646266647
 30 0.055475437017292753
 31 -0.013561181393165591
 32 0.031844894505296074
 33 -0.055866452594563847
 34 -0.25699039646266986
 35 0.055475437017306499
 36 0.24382083915763558
 37 0.0035013848901484226
 38 0.24382083915769517
 39 0.00350138489015544
 40 -0.15824822744202549
 41 -0.15824822744205169
 42 -0.1582482274420233
 43 -0.15824822744205616
Sym= A
Ene= -0.44209396489142694
Spin= Alpha
Occup= 2
 1 -7.4824785502438973e-17
 2 3.303125644500622e-16
 3 0.30411549572693508
 4 1.7164946233664509e-14
 5 8.0176749641013735e-16
 6 -2.9554629970632538e-15
 7 1.2016078305632519e-14
 8 -0.23214813513741575
 9 -2.4523007806956021e-14
 10 -5.0444303080737679e-15
 11 0.011043415960598062
 12 -0.05301052909724957
 13 0.12223400291434937
 14 -0.159659025971531
 15 -0.11460436729947295
 16 0.011043415960601988
 17 -0.053010529097265273
 18 0.12223400291436988
 19 0.15965902597152914
 20 -0.11460436729948875
 21 3.0221318314371962e-15
 22 -1.2364447613726981e-14
 23 -0.23214813513743049
 24 -2.3632480830098537e-14
 25 1.2530348147533385e-15
 26 -0.011043415960598775
 27 0.053010529097252949
 28 0.1222340029143611
 29 -0.15965902597153614
 30 0.11460436729947833
 31 -0.011043415960601143
 32 0.05301052909726215
 33 0.12223400291436437
 34 0.15965902597153203
 35 0.11460436729947882
 36 -2.6110385792283923e-14
 37 -0.31547928602757691
 38 2.2788568730359071e-14
 39 0.3154792860275793
 40 0.0040764463003431558
 41 0.0040764463003243271
 42 -0.0040764463003326416
 43 -0.0040764463003321941
Sym= A
Ene= -0.41422232104875029
Spin= Alpha
Occup= 2
 1 -2.8512028554700038e-16
 2 1.6860277757554959e-15
 3 -1.0504480085432583e-14
 4 0.44338327305130826
 5 1.1717050070185564e-15
 6 -0.0020887347007629564
 7 0.01863904343250734
 8 1.2370477339415567e-14
 9 -0.2262216796350224
 10 0.28051515291057499
 11 -0.0062359742612079884
 12 0.02003745853453678
 13 0.095826183586444888
 14 -0.0029497870693186577
 15 -0.012132617016322251
 16 0.0062359742612074056
 17 -0.020037458534534262
 18 -0.095826183586456545
 19 -0.0029497870693264666
 20 0.012132617016325299
 21 0.0020887347007638732
 22 -0.01863904343251141
 23 3.7085266572176948e-15
 24 -0.22622167963502599
 25 -0.28051515291057888
 26 0.006235974261207573
 27 -0.020037458534535514
 28 0.095826183586454436
 29 -0.0029497870693191127
 30 0.01213261701631875
 31 -0.0062359742612072225
 32 0.020037458534533648
 33 -0.095826183586454936
 34 -0.0029497870693271974
 35 -0.012132617016335454
 36 -0.1655196555673851
 37 1.09314492269171e-14
 38 0.16551965556738649
 39 -8.3550842803902164e-15
 40 -0.1057260595076949
 41 0.10572605950769223
 42 -0.10572605950769579
 43 0.10572605950769867
Sym= A
Ene= -0.40752553531502661
Spin= Alpha
Occup= 2
 1 7.5971192842596498e-17
 2 -1.5248153164632296e-16
 3 -6.9153928965725911e-15
 4 -4.2171888081558448e-15
 5 -2.3408025122868388e-15
 6 -1.111493249598891e-17
 7 4.2922670094659406e-16
 8 0.33744491467294785
 9 -9.1077516466239757e-16
 10 -3.7499927164814322e-15
 11 -0.017212362204039891
 12 0.075307586912998034
 13 -0.17908799912847231
 14 0.0042156360154586812
 15 0.15916969659436508
 16 0.017212362204039187
 17 -0.075307586912994343
 18 0.17908799912847642
 19 0.0042156360154498472
 20 -0.15916969659434865
 21 1.1609875016985453e-15
 22 -4.615811911756241e-15
 23 -0.33744491467293708
 24 6.6517743333872694e-16
 25 6.8667763017237658e-15
 26 -0.017212362204039832
 27 0.075307586912997465
 28 0.17908799912846368
 29 -0.0042156360154526748
 30 0.15916969659435626
 31 0.017212362204039849
 32 -0.075307586912998312
 33 -0.17908799912847462
 34 -0.004215636015455662
 35 -0.15916969659435376
 36 -3.3692378928390878e-15
 37 7.0248897356748371e-15
 38 8.0760684463580308e-17
 39 -9.0295080372625649e-15
 40 0.21113355336133746
 41 -0.21113355336133532
 42 -0.2111335533613268
 43 0.21113355336133527
Sym= A
Ene= -0.29649045574383859
Spin= Alpha
Occup= 2
 1 -0.043278941782111252
 2 0.18143498919818857
 3 -1.0078861924501718e-15
 4 -1.437810721828796e-15
 5 -0.18503875672728254
 6 -0.0062704626427630885
 7 0.024179631779406772
 8 4.8187943221005405e-15
 9 -0.012434298698017345
 10 0.14729188347043604
 11 0.017919193048999481
 12 -0.078006149021956864
 13 -0.096777913086102035
 14 -0.070936884709282666
 15 -0.3372103057489928
 16 0.017919193049000033
 17 -0.078006149021959001
 18 -0.096777913086099385
 19 0.070936884709284984
 20 -0.33721030574899852
 21 -0.0062704626427636878
 22 0.024179631779409495