[Molden Format]
[Title]
generated by GANSU
[Atoms] (Angs)
O 1 8 0 0 0
O 2 8 0 0 1.2172
[GTO]
1 0
 s 3 1.00
    23.8089 0.535328
    6.44361 0.444635
    130.709 0.154329
 s 3 1.00
    5.03315 -0.0999672
    1.1696 0.399513
    0.380389 0.700115
 p 3 1.00
    0.380389 0.391957
    1.1696 0.607684
    5.03315 0.155916

2 0
 s 3 1.00
    130.709 0.154329
    6.44361 0.444635
    23.8089 0.535328
 s 3 1.00
    5.03315 -0.0999672
    1.1696 0.399513
    0.380389 0.700115
 p 3 1.00
    5.03315 0.155916
    1.1696 0.607684
    0.380389 0.391957

[MO]
Sym= A
Ene= -20.3606
Spin= Alpha
Occup= 2
 1 0.70291452644983021
 2 0.019699394021180736
 3 9.3563090198185238e-17
 4 3.0401295512622415e-16
 5 0.0037681112800287231
 6 -0.7029145264645561
 7 -0.019699394021451017
 8 1.9518245392505257e-16
 9 2.283540137864448e-16
 10 0.0037681112800193985
Sym= A
Ene= -20.359191004398511
Spin= Alpha
Occup= 2
 1 0.70363868790743156
 2 0.012942966926839947
 3 2.9307755928715828e-16
 4 3.4934354347141099e-16
 5 -0.00044525513056818764
 6 0.70363868789272166
 7 0.012942966926427244
 8 -3.5375500367338885e-16
 9 -4.2433344124463412e-16
 10 0.00044525513064671603
Sym= A
Ene= -1.4715021104952988
Spin= Alpha
Occup= 2
 1 -0.17353315276969769
 2 0.59980790046447841
 3 2.6048738154739112e-14
 4 2.7887672348737128e-14
 5 0.091440464309881633
 6 -0.17353315276969769
 7 0.59980790046447885
 8 -2.2875481899863128e-14
 9 -3.1718838866549963e-14
 10 -0.091440464309882535
Sym= A
Ene= -0.9399619684507633
Spin= Alpha
Occup= 2
 1 -0.19069214327606362
 2 0.8061907678017769
 3 -2.5198445681483338e-14
 4 -3.1532948460354585e-14
 5 -0.077354260295824928
 6 0.19069214327606326
 7 -0.80619076780177612
 8 -2.4356839329530277e-14
 9 -2.9977080742433018e-14
 10 -0.077354260295823984
Sym= A
Ene= -0.60761578182405884
Spin= Alpha
Occup= 2
 1 -2.9100932515061695e-15
 2 1.3829180304408802e-14
 3 -0.38160998983322147
 4 0.31043975688973291
 5 -1.7485506573051812e-14
 6 -2.8478780828361025e-15
 7 1.3645328041755674e-14
 8 -0.38160998983320604
 9 0.3104397568897666
 10 1.7222246617014891e-14
Sym= A
Ene= -0.60761578182403508
Spin= Alpha
Occup= 2
 1 -2.3137270882839952e-14
 2 1.0997343335927613e-13
 3 0.31043975688974795
 4 0.38160998983321121
 5 6.4182669568995441e-14
 6 2.3439587755882529e-14
 7 -1.1593549984930456e-13
 8 0.31043975688975178
 9 0.3816099898332167
 10 5.324332181506938e-14
Sym= A
Ene= -0.30985503376879497
Spin= Alpha
Occup= 2
 1 9.2977622331413199e-14
 2 -4.7741160223220242e-13
 3 0.44259196306706872
 4 0.36153949798147322
 5 7.2357238461684267e-13
 6 9.3984407102350413e-14
 7 -4.8269468774205294e-13
 8 -0.44259196306708698
 9 -0.36153949798145052
 10 -7.1972479364548325e-13
Sym= A
Ene= -0.30985503376879087
Spin= Alpha
Occup= 2
 1 1.8827025543216002e-14
 2 -9.6833730294400529e-14
 3 -0.36153949798146701
 4 0.44259196306708276
 5 1.4575658085401177e-13
 6 1.8935132392038227e-14
 7 -9.7143703451547553e-14
 8 0.3615394979814569
 9 -0.44259196306707282
 10 -1.4620846959980488e-13
Sym= A
Ene= -0.063571554218550402
Spin= Alpha
Occup= 0
 1 -0.053072976142748703
 2 0.28286867910089802
 3 5.9302095616354557e-13
 4 6.9477312880390926e-13
 5 -0.46735032199434834
 6 -0.053072976142748848
 7 0.28286867910089769
 8 -5.5711076158410303e-13
 9 -7.0948791845925152e-13
 10 0.46735032199435134
Sym= A
Ene= 0.83469185471607166
Spin= Alpha
Occup= 0
 1 -0.082453696925199382
 2 0.52491585879003955
 3 -3.0019845649434894e-14
 4 -3.6083850958819855e-14
 5 0.70538227853669155
 6 0.08245369692519923
 7 -0.52491585879003944
 8 -2.7222290420819621e-14
 9 -3.4148339198087505e-14
 10 0.70538227853668922
