[Molden Format]
[Title]
generated by GANSU
[Atoms] (Angs)
C 1 6 0 0 1.464
C 2 6 0 0 -1.464
C 3 6 0 1.279 0.659
C 4 6 0 -1.279 0.659
C 5 6 0 -1.279 -0.659
C 6 6 0 1.279 -0.659
O 7 8 0 0 2.691
O 8 8 0 0 -2.691
H 9 1 0 2.201 1.23
H 10 1 0 -2.201 1.23
H 11 1 0 -2.201 -1.23
H 12 1 0 2.201 -1.23
[GTO]
1 0
 s 3 1.00
    13.0451 0.535328
    3.53051 0.444635
    71.6168 0.154329
 s 3 1.00
    2.94125 -0.0999672
    0.683483 0.399513
    0.22229 0.700115
 p 3 1.00
    2.94125 0.155916
    0.683483 0.607684
    0.22229 0.391957

2 0
 s 3 1.00
    71.6168 0.154329
    13.0451 0.535328
    3.53051 0.444635
 s 3 1.00
    2.94125 -0.0999672
    0.22229 0.700115
    0.683483 0.399513
 p 3 1.00
    2.94125 0.155916
    0.683483 0.607684
    0.22229 0.391957

3 0
 s 3 1.00
    71.6168 0.154329
    13.0451 0.535328
    3.53051 0.444635
 s 3 1.00
    2.94125 -0.0999672
    0.683483 0.399513
    0.22229 0.700115
 p 3 1.00
    2.94125 0.155916
    0.683483 0.607684
    0.22229 0.391957

4 0
 s 3 1.00
    3.53051 0.444635
    13.0451 0.535328
    71.6168 0.154329
 s 3 1.00
    2.94125 -0.0999672
    0.683483 0.399513
    0.22229 0.700115
 p 3 1.00
    0.22229 0.391957
    2.94125 0.155916
    0.683483 0.607684

5 0
 s 3 1.00
    3.53051 0.444635
    13.0451 0.535328
    71.6168 0.154329
 s 3 1.00
    0.22229 0.700115
    0.683483 0.399513
    2.94125 -0.0999672
 p 3 1.00
    2.94125 0.155916
    0.683483 0.607684
    0.22229 0.391957

6 0
 s 3 1.00
    71.6168 0.154329
    13.0451 0.535328
    3.53051 0.444635
 s 3 1.00
    0.683483 0.399513
    2.94125 -0.0999672
    0.22229 0.700115
 p 3 1.00
    2.94125 0.155916
    0.683483 0.607684
    0.22229 0.391957

7 0
 s 3 1.00
    130.709 0.154329
    23.8089 0.535328
    6.44361 0.444635
 s 3 1.00
    5.03315 -0.0999672
    1.1696 0.399513
    0.380389 0.700115
 p 3 1.00
    5.03315 0.155916
    0.380389 0.391957
    1.1696 0.607684

8 0
 s 3 1.00
    6.44361 0.444635
    23.8089 0.535328
    130.709 0.154329
 s 3 1.00
    0.380389 0.700115
    5.03315 -0.0999672
    1.1696 0.399513
 p 3 1.00
    0.380389 0.391957
    1.1696 0.607684
    5.03315 0.155916

9 0
 s 3 1.00
    3.42525 0.154329
    0.623914 0.535328
    0.168855 0.444635

10 0
 s 3 1.00
    0.168855 0.444635
    3.42525 0.154329
    0.623914 0.535328

11 0
 s 3 1.00
    0.168855 0.444635
    0.623914 0.535328
    3.42525 0.154329

12 0
 s 3 1.00
    0.623914 0.535328
    3.42525 0.154329
    0.168855 0.444635

[MO]
Sym= A
Ene= -20.2988
Spin= Alpha
Occup= 2
 1 -0.00038732336260180564
 2 0.0050545632515819668
 3 1.3106308762329759e-16
 4 2.0992764752079693e-16
 5 0.0038431224641465541
 6 0.00038732336044165755
 7 -0.0050545632237050742
 8 9.0074232725593935e-17
 9 7.8510748887649319e-17
 10 0.0038431224431728877
 11 2.1183378616511421e-05
 12 -0.0001642695479428084
 13 -7.397942712105967e-17
 14 -3.3948949950278895e-05
 15 -0.00031412534045897813
 16 2.1183378616831291e-05
 17 -0.00016426954794345047
 18 -5.2160713019655355e-17
 19 3.3948949950688662e-05
 20 -0.0003141253404587627
 21 -2.1183378541623811e-05
 22 0.0001642695466170008
 23 -8.4716726571253564e-18
 24 -3.3948949323627976e-05
 25 -0.00031412533891600811
 26 -2.1183378541360689e-05
 27 0.0001642695466167699
 28 4.3371335126808709e-18
 29 3.3948949323759435e-05
 30 -0.00031412533891629602
 31 -0.70306596229784002
 32 -0.018305194785572455
 33 2.1447252590111739e-17
 34 -5.8277574478161042e-17
 35 0.0029357527542691153
 36 0.70306595840724317
 37 0.018305194684426689
 38 6.4934472533462009e-18
 39 3.5554871656119112e-19
 40 0.0029357527380970195
 41 0.00012493707370932723
 42 0.00012493707371019874
 43 -0.00012493707285839888
 44 -0.00012493707285888745
Sym= A
Ene= -20.298828286939891
Spin= Alpha
Occup= 2
 1 -0.00039038249437115436
 2 0.0050375792744936816
 3 7.1995558988619353e-17
 4 4.4830649386579524e-16
 5 0.00379023241240877
 6 -0.00039038249651583771
 7 0.0050375793024651176
 8 3.8620832273199621e-17
 9 5.7218959467707211e-16
 10 -0.0037902324336764035
 11 1.3771652760541914e-05
 12 -0.0002395983684255144
 13 1.9665196707693169e-16
 14 -0.00011328374045248758
 15 -0.00027872317784504206
 16 1.3771652760237879e-05
 17 -0.000239598368424661
 18 1.1504335402998587e-16
 19 0.00011328374045257387
 20 -0.00027872317784473707
 21 1.3771652877274023e-05
 22 -0.00023959836933368982
 23 -1.1629712725375844e-16
 24 0.00011328374064030738
 25 0.00027872317958293634
 26 1.3771652877777415e-05
 27 -0.00023959836933427962
 28 -4.8557358054128034e-19
 29 -0.00011328374064007971
 30 0.00027872317958349562
 31 -0.70306845542158225
 32 -0.018278146068191201
 33 -5.7965548860474123e-17
 34 -5.4098666316631389e-17
 35 0.002922421034210752
 36 -0.70306845931216466
 37 -0.018278146169488588
 38 -1.7876652781577693e-17
 39 -1.7362106785261476e-16
 40 -0.0029224210504565718
 41 0.00015383526184382481
 42 0.0001538352618437406
 43 0.00015383526253458799
 44 0.00015383526253469993
Sym= A
Ene= -11.14052293532586
Spin= Alpha
Occup= 2
 1 0.70182268062404907
 2 0.023346463492969285
 3 6.4363712205008728e-17
 4 -2.6285538868066248e-17
 5 0.00011526803094981894
 6 -0.70182268062524866
 7 -0.023346463493008146
 8 1.2791990030027631e-16
 9 3.5935053132678854e-17
 10 0.00011526803095027405
 11 -0.00070597102512109347
 12 -0.0041270529669961472
 13 3.0409274073362059e-17
 14 0.0021177957767453586
 15 -0.0014151930912542012
 16 -0.00070597102516423203
 17 -0.0041270529669969972
 18 1.6171175823396715e-17
 19 -0.0021177957767456162
 20 -0.0014151930912541266
 21 0.00070597102512876984
 22 0.0041270529670031442
 23 -3.8856676961752086e-17
 24 0.0021177957767486905
 25 -0.0014151930912566324
 26 0.00070597102512526429
 27 0.0041270529670029612
 28 -5.161932533416546e-17
 29 -0.0021177957767486047
 30 -0.0014151930912566495
 31 0.00011936813940511252
 32 -0.0040697237118066778
 33 -2.2234487869407676e-17
 34 -1.8868767996508443e-17
 35 0.0009138979162744774
 36 -0.0001193681394046685
 37 0.0040697237118138361
 38 1.3215169899604808e-17
 39 -8.5280098761133548e-17
 40 0.0009138979162759478
 41 2.629051864237318e-05
 42 2.6290518642384069e-05
 43 -2.6290518642432242e-05
 44 -2.6290518642434922e-05
Sym= A
Ene= -11.140482903909907
Spin= Alpha
Occup= 2
 1 -0.70185060829419843
 2 -0.023209002233725767
 3 1.2745339637575896e-16
 4 2.1621995703634846e-17
 5 -0.0003020889492012353
 6 -0.70185060829299861
 7 -0.023209002233685046
 8 8.5519693137932118e-17
 9 5.0835228007880453e-18
 10 0.00030208894920075651
 11 0.00099773688503836762
 12 0.0039563146497700536
 13 -5.3327162304073842e-17
 14 -0.0019915724004642482
 15 0.0014116506960712119
 16 0.00099773688501169017
 17 0.0039563146497700414
 18 -2.0539825615144022e-17
 19 0.0019915724004639923
 20 0.0014116506960712054
 21 0.00099773688503112016
 22 0.0039563146497624798
 23 2.0996779065049389e-17
 24 0.0019915724004606408
 25 -0.0014116506960687603
 26 0.00099773688502920784
 27 0.003956314649762851
 28 -6.0398931904023463e-18
 29 -0.0019915724004606122
 30 -0.0014116506960686627
 31 -0.00012568937598003157
 32 0.0041310674891681179
 33 -3.1991712832418069e-17
 34 -2.6671180308671104e-17
 35 -0.00094307182575729682
 36 -0.00012568937597971157
 37 0.0041310674891607271
 38 2.6051980598901921e-17
 39 -6.8592453276650015e-17
 40 0.00094307182575547645
 41 2.2394913182029779e-05
 42 2.239491318178043e-05
 43 2.239491318232884e-05
 44 2.2394913182245681e-05
Sym= A
Ene= -11.05854213802629
Spin= Alpha
Occup= 2
 1 1.2512720854760951e-13
 2 -3.0563318951535085e-13
 3 -8.9939465847527047e-16
 4 -0.0028952373034633145
 5 1.0708903881882036e-13
 6 1.3795964143836153e-13
 7 -2.5794192322583169e-13
 8 5.49612584996891e-16
 9 -0.0028952373037940495
 10 -9.2855642879701328e-14
 11 0.49621831084571788
 12 0.013974260336625263
 13 2.8225759002284582e-16
 14 -0.0001272079710340877
 15 0.0011750149018484473
 16 -0.49621831079200474
 17 -0.013974260335040879
 18 1.3790806277356142e-15
 19 -0.00012720797103577103
 20 -0.0011750149017377765
 21 -0.49621831084888601
 22 -0.013974260337571431
 23 -1.1196751660027863e-15
 24 -0.00012720797103852834
 25 0.0011750149014292228
 26 0.4962183108950679
 27 0.013974260338817166
 28 -9.4287816883059199e-17
 29 -0.00012720797103516583
 30 -0.0011750149015791827
 31 -5.7788128399728512e-16
 32 9.1040251651469859e-15
 33 3.7207578431765262e-16
 34 0.00010584670785917185
 35 -3.5517287930073682e-15
 36 -3.3865098091492109e-16
 37 6.2748399064880197e-15
 38 -1.5304209684220933e-16
 39 0.00010584670787418324
 40 2.4594779896954609e-15
 41 -0.003273464395021442
 42 0.0032734643946504879
 43 0.0032734643950477886
 44 -0.0032734643953639926
Sym= A
Ene= -11.058431215884349
Spin= Alpha
Occup= 2
 1 -0.0024427474019145896
 2 0.0056102372405534709
 3 -2.1398153793212574e-17
 4 -1.3912916751500648e-13
 5 -0.0020012672429557655
 6 -0.0024427474021090777
 7 0.0056102372412328398
 8 2.2452307968694837e-16
 9 -1.5276427296545549e-13
 10 0.0020012672431600829
 11 -0.49626558932408116
 12 -0.014073172618481131
 13 -1.7459805526832216e-16
 14 -2.2691522019461691e-05
 15 -0.0012963328824724446
 16 -0.49626558937184256
 17 -0.01407317261979008
 18 -2.4988634262259688e-17
 19 2.2691522006570351e-05
 20 -0.0012963328826031118
 21 -0.49626558942927512
 22 -0.01407317262237124
 23 1.170264253831214e-16
 24 2.2691521993386453e-05
 25 0.0012963328822865531
 26 -0.49626558937715148
 27 -0.014073172620866908
 28 -1.1722417736459427e-16
 29 -2.2691522005993298e-05
 30 0.0012963328821801712
 31 8.3106385102558512e-06
 32 -0.00013958129656067278
 33 1.9459270559947666e-17
 34 5.0187850156288087e-15
 35 5.7282362225882161e-05
 36 8.3106385132706685e-06
 37 -0.00013958129660208749
 38 -6.9128532113212926e-17
 39 5.7676504637132516e-15
 40 -5.728236224228311e-05
 41 0.0034183322687993587
 42 0.0034183322691129087
 43 0.0034183322695176569
 44 0.0034183322691729262
Sym= A
Ene= -11.057582000141942
Spin= Alpha
Occup= 2
 1 1.9277603348149935e-15
 2 1.8371143447057892e-14
 3 4.7012482964128848e-17
 4 0.0030819602743463771
 5 -5.2485261520727123e-15
 6 -1.1024102637901093e-14
 7 -4.4061667714868643e-14
 8 -1.4617634297553791e-16
 9 -0.0030819602740360442
 10 -1.314881865527619e-14
 11 -0.49596995046792924
 12 -0.022059692396841267
 13 -2.6533418027685438e-16
 14 4.1281562759983177e-06
 15 0.0026929314433712759
 16 0.4959699504651579
 17 0.02205969239667966
 18 6.3324131685994271e-17
 19 4.1281562742136201e-06
 20 -0.0026929314433378673
 21 -0.49596995040983349
 22 -0.022059692395120907
 23 -1.2378633668096749e-17
 24 -4.1281562606511691e-06
 25 -0.0026929314434693966
 26 0.49596995041697006
 27 0.022059692395405877
 28 1.9484419593862387e-16
 29 -4.1281562620298245e-06
 30 0.0026929314434914605
 31 2.4330419536081523e-16
 32 -1.2506205423684968e-15
 33 -3.3643298279802665e-16
 34 -0.00013995181713428708
 35 4.2056735193769406e-16
 36 -3.2456087847191251e-16
 37 2.8712995374138e-15
 38 -1.3840579758060247e-17
 39 0.00013995181712273921
 40 1.1803926595052532e-15
 41 0.0034667891521862875
 42 -0.0034667891521667498
 43 0.0034667891518013259
 44 -0.0034667891518507495
Sym= A
Ene= -11.057575659077585
Spin= Alpha
Occup= 2
 1 -0.001962758970282954
 2 0.0060907133534864348
 3 -1.2290615559151565e-16
 4 -2.6638433516296647e-14
 5 -0.0018402663272270054
 6 0.0019627589700197271
 7 -0.0060907133528601467
 8 2.5703088172928028e-16
 9 4.1799602517087028e-15
 10 -0.0018402663270048485
 11 -0.49596836996123927
 12 -0.022292424114263978
 13 -1.0707563504344243e-16
 14 0.00012041179044311337
 15 0.0027320193721189229
 16 -0.49596836996996113
 17 -0.022292424114590339
 18 7.2528953332789816e-17
 19 -0.0001204117904443418
 20 0.0027320193721367832
 21 0.4959683699109092
 22 0.022292424112916244
 23 -4.7472375553039543e-17
 24 0.00012041179044525027
 25 0.0027320193722901501
 26 0.49596836990972237
 27 0.02229242411280178
 28 -5.6496585745870936e-17
 29 -0.0001204117904463424
 30 0.0027320193722543949
 31 3.3703326044385134e-05
 32 -0.00036382195610277032
 33 3.0443199585273708e-17
 34 1.1391564234508221e-15
 35 0.00014665572836029714
 36 -3.3703326043514994e-05
 37 0.00036382195608670027
 38 -1.0339472542905124e-16
 39 -2.1791653956605332e-16
 40 0.00014665572835312015
 41 0.0034936730236120191
 42 0.0034936730236707764
 43 -0.003493673023265937
 44 -0.003493673023255376
Sym= A
Ene= -1.3381299375492071
Spin= Alpha
Occup= 2
 1 0.090596723152861158
 2 -0.20936127722879558
 3 -4.0189291864314398e-16
 4 -6.738945980125641e-16
 5 -0.089535407667939548
 6 0.090596723153589881
 7 -0.2093612772304824
 8 6.2924748470928541e-16
 9 -8.1736103949716235e-16
 10 0.089535407668710335
 11 0.019021464077247884
 12 -0.046053871847555793
 13 -8.393212749267778e-16
 14 0.015142298811891447
 15 -0.0048768316124630992
 16 0.019021464077247328
 17 -0.046053871847553947
 18 8.5905796940626896e-17
 19 -0.015142298811890508
 20 -0.0048768316124643144
 21 0.019021464077343741
 22 -0.046053871847791743
 23 3.3754640285604511e-16
 24 -0.015142298812003026
 25 0.0048768316125714526
 26 0.019021464077344105
 27 -0.046053871847791826
 28 -3.8833770928099828e-16
 29 0.015142298812004499
 30 0.0048768316125704205
 31 0.15107247845129576
 32 -0.52899159253908268
 33 1.9785300029698193e-16
 34 1.3588565436511069e-16
 35 0.087722303085013123
 36 0.1510724784525439
 37 -0.52899159254345041
 38 -2.0216384927452711e-17
 39 3.2176783673451802e-16
 40 -0.087722303085740319
 41 -0.0070864826243829939
 42 -0.0070864826243839819
 43 -0.007086482624426277
 44 -0.0070864826244269614
Sym= A
Ene= -1.3359335333756397
Spin= Alpha
Occup= 2
 1 0.088452706285939348
 2 -0.20402153246522567
 3 1.4092760097846482e-16
 4 7.5887935075305772e-17
 5 -0.094185193366206427
 6 -0.08845270628520252
 7 0.20402153246352758
 8 -2.2618194701511989e-16
 9 5.9674635885035578e-16
 10 -0.094185193365473818
 11 0.011493912428028868
 12 -0.028113991008440687
 13 3.8777431685507056e-16
 14 0.013459313947875548
 15 -0.012818769603954588
 16 0.01149391242802888
 17 -0.028113991008440489
 18 4.9875828793271981e-17
 19 -0.013459313947876049
 20 -0.012818769603953581
 21 -0.011493912427875154
 22 0.028113991008068506
 23 -2.132318334225857e-16
 24 0.013459313947753569
 25 -0.012818769603915887
 26 -0.01149391242787532
 27 0.028113991008068651
 28 1.9166846543310288e-16
 29 -0.013459313947753949
 30 -0.012818769603915673
 31 0.15302370040860164
 32 -0.53606518957146054
 33 1.1293989822164656e-16
 34 3.2943258840404493e-17
 35 0.088296416635837566
 36 -0.15302370040736216
 37 0.53606518956711646
 38 -3.6073935321903284e-17
 39 -1.5165388868505111e-16
 40 0.088296416635125483
 41 -0.0051995913606695228
 42 -0.005199591360669744
 43 0.0051995913606123195
 44 0.0051995913606121174
Sym= A
Ene= -1.0780489909005047
Spin= Alpha
Occup= 2
 1 -0.054540704486966643
 2 0.15346325923738036
 3 -3.6295013543251862e-16
 4 2.74274576729807e-15
 5 -0.10384882147996749
 6 -0.054540704486982484
 7 0.15346325923742693
 8 3.4384901499131182e-16
 9 1.4468567994159591e-15
 10 0.10384882147999996
 11 -0.11350486823281436
 12 0.29111949239668766
 13 -1.1452292684285246e-15
 14 -0.029733037718180456
 15 -0.057735409210072072
 16 -0.11350486823280674
 17 0.29111949239666735
 18 1.0826434677352744e-16
 19 0.029733037718181837
 20 -0.057735409210068908
 21 -0.11350486823282284
 22 0.29111949239672358
 23 5.6658902799631852e-16
 24 0.029733037718192842
 25 0.057735409210055086
 26 -0.11350486823282994
 27 0.29111949239674312
 28 -4.1583888080990941e-16
 29 -0.02973303771819135
 30 0.057735409210059804
 31 0.048060789256346784
 32 -0.18253554574786804
 33 9.044005667007611e-17
 34 -3.502446997005324e-17
 35 0.0012640582951527635
 36 0.048060789256360904
 37 -0.18253554574792152
 38 -1.4444302902682371e-17
 39 4.2019714213806961e-16
 40 -0.001264058295154737
 41 0.053623269244917379
 42 0.053623269244911898
 43 0.053623269244923923
 44 0.053623269244927531
Sym= A
Ene= -1.0036272536972664
Spin= Alpha
Occup= 2
 1 1.7822033328090716e-15
 2 -4.9054595541015142e-15
 3 -1.1306650553798112e-16
 4 0.094997706178490557
 5 2.9243928181148655e-15
 6 2.3090278267353248e-15
 7 -6.1393846026987467e-15
 8 6.4998544456384173e-16
 9 0.094997706178523031
 10 -2.9760975499594151e-15
 11 -0.12875726767933052
 12 0.34154769548697766
 13 5.2567126610781499e-18
 14 0.0087695530221742132
 15 -0.073709595355058763
 16 0.12875726767933626
 17 -0.34154769548699226
 18 -5.5435690951827397e-16
 19 0.0087695530221721715
 20 0.073709595355061636
 21 0.12875726767935339
 22 -0.34154769548705166
 23 3.4127240479263162e-16
 24 0.0087695530221702303
 25 -0.073709595355046023
 26 -0.12875726767934639
 27 0.34154769548703351
 28 -2.7231325103800309e-16
 29 0.0087695530221734048
 30 0.073709595355045315
 31 -1.1003883955787673e-15
 32 4.1186624713659325e-15
 33 1.2450450104959009e-16
 34 0.020053194074304417
 35 4.6049138484974237e-16
 36 -1.4281726181292509e-15
 37 5.7803381852061198e-15
 38 1.7940892283975114e-16
 39 0.02005319407431122
 40 -5.7226401959699337e-16
 41 0.085044472561626602
 42 -0.085044472561627935
 43 -0.085044472561648446
 44 0.085044472561644879
Sym= A
Ene= -0.87485585545568612
Spin= Alpha
Occup= 2
 1 -0.10979666873433334
 2 0.33362946949763528
 3 -9.6752949849094662e-17
 4 2.500096213610786e-15
 5 -0.13042194080676414
 6 0.1097966687343384
 7 -0.33362946949765598
 8 9.4570961577777167e-17
 9 -2.602193315270726e-15
 10 -0.13042194080677488
 11 -0.078517993873128827
 12 0.22810256616396321
 13 -1.843126888692355e-16
 14 -0.048334698457131522
 15 0.091887875915832376
 16 -0.078517993873127481
 17 0.22810256616395869
 18 -1.9299746261333705e-16
 19 0.048334698457130489
 20 0.091887875915828449
 21 0.078517993873097811
 22 -0.22810256616388463
 23 2.2122866439218683e-17
 24 -0.048334698457149716
 25 0.091887875915883349
 26 0.078517993873100766
 27 -0.22810256616389341
 28 6.4665216561098869e-17
 29 0.048334698457148627
 30 0.091887875915883863
 31 0.06843492636095512
 32 -0.28569512153315757
 33 -1.6336691179053338e-16
 34 4.6768929147975716e-16
 35 -0.052430019425393694
 36 -0.068434926360960213
 37 0.28569512153317833
 38 1.0659498249018735e-16
 39 -1.0044201862433198e-15
 40 -0.052430019425394207
 41 0.077781097778555158
 42 0.077781097778550801
 43 -0.077781097778533759
 44 -0.077781097778536951
Sym= A
Ene= -0.79025183770233698
Spin= Alpha
Occup= 2
 1 1.6959838730709332e-15
 2 -5.3682035108371393e-15
 3 6.9131751102556455e-16
 4 0.20345045910606191
 5 2.3914938411637061e-15
 6 -1.7729540155001378e-15
 7 5.1043667964032056e-15
 8 3.3825533039451047e-16
 9 -0.2034504591061069
 10 2.9288282400528325e-16
 11 -0.091213391470477037
 12 0.27368883118797521
 13 4.4162063305955837e-16
 14 0.0064282765889118118
 15 0.118507556189295
 16 0.09121339147047898
 17 -0.2736888311879796
 18 2.2921264404669014e-17
 19 0.0064282765889087483
 20 -0.11850755618929455
 21 -0.091213391470455665
 22 0.27368883118792442
 23 -2.7788935549752351e-16
 24 -0.0064282765888943206
 25 -0.11850755618937266
 26 0.091213391470454611
 27 -0.27368883118792131
 28 6.2041594025307237e-16
 29 -0.0064282765888966876
 30 0.11850755618936805
 31 -7.6000701536520626e-16
 32 3.0920014134254071e-15
 33 5.7357439470836785e-16
 34 0.091325345522421761
 35 1.1272278823415521e-15
 36 1.1863478844345591e-15
 37 -5.4346823805237182e-15
 38 6.0271285133496386e-17
 39 -0.091325345522440801
 40 2.5359205159991766e-15
 41 0.14714040759894492
 42 -0.14714040759894134
 43 0.14714040759894242
 44 -0.1471404075989422
Sym= A
Ene= -0.75676217687289205
Spin= Alpha
Occup= 2
 1 -0.10195627208876956
 2 0.32557285290824167
 3 -9.7671698195464207e-17
 4 4.3165111797240701e-15
 5 -0.088989871972931789
 6 -0.10195627208876248
 7 0.3255728529082263
 8 -3.2112613725351884e-16
 9 3.662175691185601e-15
 10 0.088989871972937382
 11 0.043659773234517106
 12 -0.12427178035585654
 13 2.463324749867919e-16
 14 -0.17490619467099516
 15 0.093082787495688976
 16 0.043659773234518078
 17 -0.12427178035585985
 18 2.6996775408360394e-16
 19 0.17490619467098881
 20 0.093082787495686381
 21 0.043659773234539699
 22 -0.12427178035592819
 23 2.915093287647694e-16
 24 0.17490619467102517
 25 -0.093082787495663261
 26 0.043659773234538964
 27 -0.12427178035592619
 28 1.5208575451543292e-16
 29 -0.17490619467102825
 30 -0.093082787495665356
 31 0.049937274621167087
 32 -0.22171556767811065
 33 -1.389057101359981e-17
 34 1.6978312141589684e-15
 35 -0.083883166887202459
 36 0.049937274621160231
 37 -0.22171556767807848
 38 -1.185345858355069e-16
 39 1.7054658069877909e-15
 40 0.083883166887190261
 41 -0.12067974417444291
 42 -0.12067974417443937
 43 -0.12067974417450132
 44 -0.12067974417450264
Sym= A
Ene= -0.63203902729167383
Spin= Alpha
Occup= 2
 1 7.2421589829618212e-15
 2 -2.4769622708686305e-14
 3 -2.1670980322150903e-15
 4 -0.26578223504025655
 5 -1.7467713926673841e-14
 6 6.8993858512604146e-15
 7 -2.3356003014053132e-14
 8 2.2925941374164193e-17
 9 -0.26578223504025822
 10 1.6673523224370583e-14
 11 -0.010238793720104788
 12 0.018512054471750035
 13 -3.4599649573045521e-16
 14 0.073166076576105826
 15 -0.22146094400253755
 16 0.010238793720103676
 17 -0.018512054471751603
 18 -1.0812294477481085e-15
 19 0.073166076576145253
 20 0.22146094400247954
 21 0.010238793720127181
 22 -0.018512054471828153
 23 -7.3803960827731181e-16
 24 0.07316607657618393
 25 -0.2214609440024583
 26 -0.010238793720127167
 27 0.018512054471824548
 28 1.9292394023535733e-17
 29 0.073166076576142589
 30 0.22146094400252042
 31 -9.6635956449504141e-15
 32 4.7668420252936846e-14
 33 -2.4989474063219192e-15
 34 -0.21036217705775209
 35 2.9198560526477998e-14
 36 -9.4250123919608866e-15
 37 4.634555853650907e-14
 38 4.1603884560002685e-16
 39 -0.21036217705773941
 40 -2.7491028426454939e-14
 41 -0.038396583310574904
 42 0.03839658331052076
 43 0.03839658331044582
 44 -0.038396583310505099
Sym= A
Ene= -0.63064518092617505
Spin= Alpha
Occup= 2
 1 -0.049503162359194539
 2 0.1659845378359508
 3 -5.5040518233086929e-16
 4 -4.8281412911930996e-14
 5 0.11023372642452116
 6 -0.049503162359181882
 7 0.16598453783590925
 8 3.0054374938184807e-16
 9 -4.4373293761204311e-14
 10 -0.11023372642456335
 11 0.0047022338331288065
 12 0.00054101886112649757
 13 -8.2886754398138734e-16
 14 0.11548597938423853
 15 0.18732839963898124
 16 0.0047022338331311571
 17 0.00054101886112214656
 18 -1.34115879876674e-16
 19 -0.11548597938420084
 20 0.18732839963904593
 21 0.0047022338331334174
 22 0.0005410188611136423
 23 2.5210415111263662e-16
 24 -0.11548597938423491
 25 -0.18732839963905276
 26 0.0047022338331302888
 27 0.00054101886111854115
 28 -5.1424305355094061e-16
 29 0.11548597938426855
 30 -0.18732839963899225
 31 0.063479960720567233
 32 -0.31232306815410449
 33 -8.295072620190279e-16
 34 -3.6760344004057434e-14
 35 -0.19226371156384675
 36 0.063479960720570897
 37 -0.31232306815412508
 38 -4.0002006291578268e-16
 39 -3.3272314036858932e-14
 40 0.19226371156387126
 41 0.16381960470034421
 42 0.16381960470034351
 43 0.16381960470036666
 44 0.16381960470036624
Sym= A
Ene= -0.60413661833175514
Spin= Alpha
Occup= 2
 1 -0.080492349229376148
 2 0.28127109239862286
 3 -1.0911031868373751e-15
 4 3.924777506368375e-15
 5 0.030342667725177012
 6 0.080492349229363588
 7 -0.28127109239858561
 8 -2.1918358908423054e-16
 9 -4.1905441455893293e-15
 10 0.030342667725225488
 11 0.050755950894544065
 12 -0.16922889241133474
 13 3.5004183160197571e-16
 14 -0.15032898595187713
 15 -0.067754557242391447
 16 0.050755950894545189
 17 -0.16922889241133732
 18 2.0548326182018995e-15
 19 0.15032898595187191
 20 -0.067754557242385952
 21 -0.050755950894536397
 22 0.16922889241131611
 23 2.665246031200746e-16
 24 -0.15032898595183825
 25 -0.06775455724242771
 26 -0.050755950894536252
 27 0.16922889241131522
 28 -9.7295435831166881e-17
 29 0.15032898595183861
 30 -0.067754557242419786
 31 0.047808832255528455
 32 -0.2378715225141757
 33 -9.1061725692569003e-16
 34 5.9746091199395847e-15
 35 -0.18713108693420338
 36 -0.047808832255532507
 37 0.23787152251419943
 38 -2.2409220139263986e-16
 39 -1.7380402414983795e-15
 40 -0.18713108693423824
 41 -0.23417268074603043
 42 -0.23417268074602046
 43 0.23417268074600744
 44 0.23417268074600647
Sym= A
Ene= -0.57556327691845943
Spin= Alpha
Occup= 2
 1 1.5357813354001424e-16
 2 -1.479722456212488e-15
 3 2.5057676309349399e-15
 4 -0.11778783200611927
 5 -6.5416604989162122e-16
 6 1.5055774809686026e-15
 7 -5.9094220592806252e-15
 8 3.1526465463550127e-16
 9 -0.1177878320062484
 10 3.1289600968573914e-15
 11 0.016487714929281121
 12 -0.046277795563900333
 13 1.7062260295767704e-15
 14 0.22622419043468309
 15 0.14562928448141066
 16 -0.016487714929279942
 17 0.046277795563897772
 18 1.0541906260333496e-15
 19 0.22622419043469574
 20 -0.14562928448142171
 21 -0.01648771492927717
 22 0.046277795563887586
 23 4.6814197073678414e-16
 24 0.22622419043479253
 25 0.14562928448142629
 26 0.016487714929276101
 27 -0.046277795563883881
 28 1.6332720386635789e-15
 29 0.22622419043478462
 30 -0.14562928448142268
 31 -7.9578853149353352e-16
 32 3.6050456668983319e-15
 33 1.5793328114616714e-15
 34 -0.052223647911426634
 35 9.7777403786069755e-16
 36 -2.2823753093597982e-15
 37 1.082429320739505e-14
 38 4.0559676045976166e-16
 39 -0.052223647911527928
 40 -8.686837934679878e-15
 41 0.23490847811300991
 42 -0.23490847811302273
 43 -0.23490847811312263
 44 0.23490847811311341
Sym= A
Ene= -0.52506755880073652
Spin= Alpha
Occup= 2
 1 0.0072991961719487989
 2 -0.036008940675269892
 3 3.2831465453736064e-15
 4 -7.4538555616550751e-15
 5 0.28793312097038049
 6 -0.0072991961719415755
 7 0.036008940675248145
 8 1.687440185056658e-15
 9 9.9743992490277043e-15
 10 0.28793312097043994
 11 0.005720682041910269
 12 -0.020666531675301851
 13 1.5475290765333739e-15
 14 0.14017626600685776
 15 0.0092395262117485003
 16 0.0057206820419117878
 17 -0.020666531675307239
 18 2.0186659872118016e-16
 19 -0.14017626600684766
 20 0.0092395262117496765
 21 -0.0057206820419109117
 22 0.020666531675311524
 23 2.4078686144859783e-15
 24 0.14017626600681468
 25 0.0092395262116535745
 26 -0.0057206820419093045
 27 0.020666531675304491
 28 1.1137527014784787e-15
 29 -0.14017626600682859
 30 0.0092395262116574221
 31 0.054717160202594213
 32 -0.29637965748320144
 33 2.9488360633169775e-16
 34 -9.4450385087278817e-15
 35 -0.30882876759446914
 36 -0.05471716020260866
 37 0.29637965748327755
 38 2.9463072143029018e-15
 39 1.0213094316322977e-14
 40 -0.30882876759455402
 41 0.12143599080563654
 42 0.12143599080562373
 43 -0.12143599080554521
 44 -0.12143599080556235
Sym= A
Ene= -0.51857771164808852
Spin= Alpha
Occup= 2
 1 -3.7230791442739731e-17
 2 1.6088573726061194e-16
 3 0.31391732768186242
 4 2.7876934023879501e-15
 5 -5.2720702606608813e-15
 6 8.3326112992392642e-17
 7 -1.9564409528104384e-16
 8 0.31391732768201186
 9 -3.1209079206327044e-15
 10 1.2022057695179999e-15
 11 3.1356946787158512e-16
 12 -1.0447482479913598e-15
 13 0.20924742651803721
 14 -3.8600297979592561e-15
 15 1.559910731695794e-15
 16 -2.9734675066582704e-16
 17 1.431236801323975e-15
 18 0.2092474265180288
 19 -1.7485165912846782e-15
 20 5.2521292178983213e-15
 21 5.9180477483896361e-16
 22 -1.829563158311337e-15
 23 0.20924742651806214
 24 1.8277486100688724e-16
 25 -4.1689631387135343e-15
 26 -3.776903322584122e-16
 27 1.4180912357603086e-15
 28 0.20924742651806991
 29 2.1498064091994695e-15
 30 -2.255139655919013e-15
 31 -8.8753669471267095e-16
 32 5.0023097516559333e-15
 33 0.22464213285612777
 34 3.7698858297609793e-15
 35 6.0471312009035912e-15
 36 -1.2403680996547365e-16
 37 8.1614909577543274e-16
 38 0.22464213285624438
 39 -4.6287421411482754e-15
 40 -1.847256221354332e-15
 41 -3.5076021398311298e-15
 42 5.3157213730095297e-15
 43 1.2301886793199428e-15
 44 4.749243817090307e-15
Sym= A
Ene= -0.50897486288187999
Spin= Alpha
Occup= 2
 1 8.0937629122428701e-16
 2 -2.5591719553549387e-15
 3 -3.2142355876225495e-15
 4 0.23286931093394089
 5 1.0905267843944943e-14
 6 -1.2112933464267823e-15
 7 4.5853263949264172e-15
 8 -5.9989621698533006e-15
 9 -0.23286931093386615
 10 7.7606563356136336e-15
 11 0.023599346272583008
 12 -0.090479751159523655
 13 -1.5114683904678779e-15
 14 -0.16300034724203927
 15 -0.020026146111143825
 16 -0.023599346272583845
 17 0.090479751159525376
 18 -3.5006028078945898e-15
 19 -0.16300034724205642
 20 0.02002614611114531
 21 0.023599346272588674
 22 -0.090479751159541391
 23 -3.1754563126730197e-15
 24 0.1630003472419482
 25 0.020026146111103173
 26 -0.023599346272588147
 27 0.090479751159540031
 28 -2.1041322914396788e-15
 29 0.16300034724193646
 30 -0.020026146111098975
 31 1.9031808159897023e-15
 32 -1.0349153063552223e-14
 33 -1.7151044136867643e-15
 34 0.30567808178228906
 35 -1.0915534565463903e-14
 36 -9.4115327962843795e-16
 37 5.4042701632835007e-15
 38 -4.5621404964994529e-15
 39 -0.30567808178220157
 40 -6.054247330175904e-15
 41 -0.21076153749080637
 42 0.21076153749081955
 43 -0.21076153749071436
 44 0.21076153749070131
Sym= A
Ene= -0.50059172062745916
Spin= Alpha
Occup= 2
 1 0.0062806101395584905
 2 -0.018533999285126109
 3 -3.5723205861185925e-15
 4 -5.1665563189184987e-16
 5 -0.23571250654973125
 6 0.0062806101395585434
 7 -0.018533999285128538
 8 -5.7412304800654994e-15
 9 -1.6779436628048485e-15
 10 0.23571250654961926
 11 0.005076384038004751
 12 -0.0009700769029459108
 13 -1.740703218734932e-15
 14 -0.012427864302390502
 15 0.22274530376429105
 16 0.0050763840380050702
 17 -0.00097007690294712717
 18 -3.0528757059102236e-15
 19 0.012427864302387867
 20 0.22274530376429377
 21 0.0050763840380201051
 22 -0.00097007690299931058
 23 -4.0309237274606691e-15
 24 0.012427864302356449
 25 -0.22274530376428986
 26 0.0050763840380193799
 27 -0.00097007690299840158
 28 -2.9870345894640009e-15
 29 -0.012427864302355188
 30 -0.22274530376428966
 31 -0.042190494853392213
 32 0.23481284622746162
 33 -1.7876747880785696e-15
 34 -6.2787545144620607e-16
 35 0.29896406558012839
 36 -0.042190494853373062
 37 0.23481284622735343
 38 -3.4322047631459323e-15
 39 -4.9513783885956453e-15
 40 -0.29896406557999811
 41 0.11948998505114329
 42 0.11948998505114668
 43 0.1194899850511493
 44 0.11948998505115116
Sym= A