[Molden Format]
[Title]
generated by GANSU
[Atoms] (Angs)
C 1 6 0 0 0.328
C 2 6 0 1.284 -0.531
C 3 6 0 -1.284 -0.531
C 4 6 0 2.565 0.327
C 5 6 0 -2.565 0.327
H 6 1 0.876 0 0.975
H 7 1 -0.876 0 0.975
H 8 1 0.876 1.284 -1.177
H 9 1 -0.876 1.284 -1.177
H 10 1 -0.876 -1.284 -1.177
H 11 1 0.876 -1.284 -1.177
H 12 1 0 3.448 -0.306
H 13 1 0 -3.448 -0.306
H 14 1 -0.88 2.603 0.962
H 15 1 0.88 2.603 0.962
H 16 1 0.88 -2.603 0.962
H 17 1 -0.88 -2.603 0.96
[GTO]
1 0
 s 3 1.00
    13.0451 0.535328
    3.53051 0.444635
    71.6168 0.154329
 s 3 1.00
    2.94125 -0.0999672
    0.683483 0.399513
    0.22229 0.700115
 p 3 1.00
    2.94125 0.155916
    0.683483 0.607684
    0.22229 0.391957

2 0
 s 3 1.00
    13.0451 0.535328
    3.53051 0.444635
    71.6168 0.154329
 s 3 1.00
    2.94125 -0.0999672
    0.683483 0.399513
    0.22229 0.700115
 p 3 1.00
    2.94125 0.155916
    0.683483 0.607684
    0.22229 0.391957

3 0
 s 3 1.00
    71.6168 0.154329
    13.0451 0.535328
    3.53051 0.444635
 s 3 1.00
    0.22229 0.700115
    0.683483 0.399513
    2.94125 -0.0999672
 p 3 1.00
    2.94125 0.155916
    0.683483 0.607684
    0.22229 0.391957

4 0
 s 3 1.00
    71.6168 0.154329
    3.53051 0.444635
    13.0451 0.535328
 s 3 1.00
    0.22229 0.700115
    0.683483 0.399513
    2.94125 -0.0999672
 p 3 1.00
    0.22229 0.391957
    0.683483 0.607684
    2.94125 0.155916

5 0
 s 3 1.00
    71.6168 0.154329
    13.0451 0.535328
    3.53051 0.444635
 s 3 1.00
    2.94125 -0.0999672
    0.22229 0.700115
    0.683483 0.399513
 p 3 1.00
    0.22229 0.391957
    0.683483 0.607684
    2.94125 0.155916

6 0
 s 3 1.00
    0.168855 0.444635
    0.623914 0.535328
    3.42525 0.154329

7 0
 s 3 1.00
    0.168855 0.444635
    0.623914 0.535328
    3.42525 0.154329

8 0
 s 3 1.00
    3.42525 0.154329
    0.623914 0.535328
    0.168855 0.444635

9 0
 s 3 1.00
    0.623914 0.535328
    3.42525 0.154329
    0.168855 0.444635

10 0
 s 3 1.00
    3.42525 0.154329
    0.623914 0.535328
    0.168855 0.444635

11 0
 s 3 1.00
    3.42525 0.154329
    0.623914 0.535328
    0.168855 0.444635

12 0
 s 3 1.00
    0.168855 0.444635
    3.42525 0.154329
    0.623914 0.535328

13 0
 s 3 1.00
    3.42525 0.154329
    0.623914 0.535328
    0.168855 0.444635

14 0
 s 3 1.00
    3.42525 0.154329
    0.623914 0.535328
    0.168855 0.444635

15 0
 s 3 1.00
    3.42525 0.154329
    0.623914 0.535328
    0.168855 0.444635

16 0
 s 3 1.00
    3.42525 0.154329
    0.623914 0.535328
    0.168855 0.444635

17 0
 s 3 1.00
    3.42525 0.154329
    0.623914 0.535328
    0.168855 0.444635

[MO]
Sym= A
Ene= -11.038
Spin= Alpha
Occup= 2
 1 0.008831719223256233
 2 0.0012499601285984987
 3 6.8304746121765946e-09
 4 0.0041802069423455919
 5 -0.0003240999909466978
 6 -0.77817535013246075
 7 -0.02932932025625213
 8 5.1187725008357242e-09
 9 -2.6642619436687958e-05
 10 0.00037135365016466169
 11 0.61464122224324136
 12 0.023043787916099536
 13 -6.8817455916376725e-08
 14 -5.5630727744854417e-05
 15 -0.00035674894134227246
 16 0.017413251699268283
 17 0.0050275465990651186
 18 -5.3358938457091925e-10
 19 -0.0022941676797292388
 20 -0.0015818376992914034
 21 -0.013450990950376392
 22 -0.0039331291071586115
 23 2.2967400722493621e-07
 24 -0.0017915643256777884
 25 0.0012491265290216331
 26 -6.7693514395420658e-05
 27 -6.7689724303658509e-05
 28 0.0055341337336763741
 29 0.0055341383243510201
 30 -0.0043749762191763819
 31 -0.0043749075040662401
 32 -0.00020173052863224381
 33 0.0001590290213371163
 34 -0.00015511993878759262
 35 -0.00015511989499593238
 36 0.00012123850345867546
 37 0.00012139056783519166
Sym= A
Ene= -11.037950226046732
Spin= Alpha
Occup= 2
 1 -0.076173501245768285
 2 -0.010657751582893964
 3 1.0952475018714399e-08
 4 0.00049230510073214361
 5 0.002751354526440332
 6 0.61223939817675899
 7 0.0236062238764757
 8 -5.3363495930189724e-09
 9 -0.00013204550088977363
 10 -1.6906999360975701e-05
 11 0.77626724613304021
 12 0.029773863483256887
 13 -8.8440005501740676e-08
 14 0.00012252878796498314
 15 -0.00010271121053168413
 16 -0.014885209110324966
 17 -0.0041150671403819769
 18 4.5519214250687282e-10
 19 0.001893078068524848
 20 0.0012457925840178587
 21 -0.018482578258232053
 22 -0.0051692106196676831
 23 3.2339859397361972e-07
 24 -0.0023742447569706231
 25 0.0015791434260288082
 26 0.00058318074010400476
 27 0.00058318487071832171
 28 -0.0043376840113357644
 29 -0.0043376877033890239
 30 -0.0055046881645771286
 31 -0.0055046021389584376
 32 0.0001594605591126854
 33 0.00020171492304989184
 34 0.00012663859443060694
 35 0.00012663847644447124
 36 0.00015890456091622056
 37 0.00015916909948678198
Sym= A
Ene= -11.035143132441275
Spin= Alpha
Occup= 2
 1 0.98891060434329858
 2 0.036528576513195486
 3 -2.1898986626816456e-08
 4 6.0794321645111079e-07
 5 0.00070134446255867876
 6 0.054862759541899342
 7 -0.0034242751529351295
 8 1.4569992199879183e-09
 9 0.0030062063204496126
 10 -0.0019840796876778219
 11 0.0550603365592136
 12 -0.0034171673164179223
 13 -1.1376064650981925e-08
 14 -0.0030060251289357768
 15 -0.0019842963253542075
 16 -0.010735059371737432
 17 -0.0006199955825423809
 18 -6.9324981449415536e-11
 19 0.00021533487826854887
 20 8.473084076476843e-07
 21 -0.010676164898677145
 22 -0.00061908272029942218
 23 1.7569636485698782e-07
 24 -0.00021593181949150644
 25 1.2358408507161219e-06
 26 -0.0070160108846579489
 27 -0.0070160304405485294
 28 -0.00035997869179192122
 29 -0.0003599789799931256
 30 -0.00036139357729483515
 31 -0.00036138146209414
 32 -3.6652822373035745e-05
 33 -3.7032865588379639e-05
 34 0.00010013862631056058
 35 0.00010013854725876011
 36 9.972127011096474e-05
 37 9.9971812660897799e-05
Sym= A
Ene= -11.031443453143579
Spin= Alpha
Occup= 2
 1 -0.0089061872835138958
 2 -0.00029504794367638931
 3 -3.4776967853546749e-09
 4 0.00013305342026165851
 5 4.4382512873844776e-05
 6 -0.02432516633060073
 7 0.0046882959788580141
 8 5.6712970352984106e-10
 9 0.0029490594036576793
 10 0.0020090522184957734
 11 -6.4638166696612189e-05
 12 -0.00019209023716548529
 13 2.3670784308419305e-08
 14 0.00027433228377587971
 15 -0.00010183555102914444
 16 -0.98996565029726558
 17 -0.037601609597699308
 18 1.1065545943666108e-09
 19 -0.00041930871910558553
 20 -0.00027283729849411766
 21 0.057477254462606542
 22 0.0022032784156543828
 23 -6.1425369338893036e-07
 24 -1.388285287263791e-05
 25 8.6527207213346545e-06
 26 6.4578487595521567e-05
 27 6.4580536953878884e-05
 28 0.00011408489583236544
 29 0.00011408530591379136
 30 7.1919776381469766e-06
 31 7.1680839298230302e-06
 32 0.0070106429256102561
 33 -0.00040694209405475463
 34 0.0070131252387034288
 35 0.0070131244169603126
 36 -0.00040803650927705539
 37 -0.00040880747687404006
Sym= A
Ene= -11.031419779202515
Spin= Alpha
Occup= 2
 1 0.0099385773254730119
 2 0.00032929938811896814
 3 -6.2711019383904185e-08
 4 0.0001183747446400782
 5 -5.002645583628869e-05
 6 0.0028835752822473255
 7 -0.00035228444349838175
 8 6.7925625576332884e-09
 9 -6.7156818186799039e-05
 10 -0.00013111701321644607
 11 0.02444562075045657
 12 -0.0047000550581744217
 13 4.032147283530892e-07
 14 0.002937756947979557
 15 -0.0020106740143735237
 16 0.057322892101641994
 17 0.0021578797456840377
 18 -4.4927892337811114e-10
 19 3.4801709436206105e-05
 20 2.3072412859819688e-05
 21 0.98995709267050691
 22 0.03761308904524388
 23 -1.0530758704190312e-05
 24 -0.00042088063027620638
 25 0.00027445518920296455
 26 -7.2070917203606257e-05
 27 -7.2040664402785591e-05
 28 -2.0411044105901011e-05
 29 -2.0408469820439858e-05
 30 -0.00011474690566382837
 31 -0.00011515132206729782
 32 -0.00040609131875174139
 33 -0.0070116177285618831
 34 -0.00040520680679806246
 35 -0.00040520461786372448
 36 -0.0070125858624737634
 37 -0.0070257483665447078
Sym= A
Ene= -1.0360254324324034
Spin= Alpha
Occup= 2
 1 0.13588552187106487
 2 -0.36511817609861325
 3 2.2722877732648802e-06
 4 2.1640867271032831e-05
 5 0.031503431506080377
 6 0.11861988058188766
 7 -0.31859373825338722
 8 4.7490512667760874e-07
 9 0.020868419430322947
 10 -0.027570071431907709
 11 0.11868202169357724
 12 -0.31875448879088769
 13 8.9969989236878856e-06
 14 -0.020837103985169438
 15 -0.027591641384784676
 16 0.073174285521836094
 17 -0.19594652657251135
 18 7.3107059495464838e-08
 19 0.032036035021560383
 20 0.016310048392323934
 21 0.073291906099008597
 22 -0.19624562010979518
 23 6.8773935866359872e-05
 24 -0.032048208251849494
 25 0.016302127082642986
 26 -0.082580157484870034
 27 -0.082581863305516784
 28 -0.071928863581633418
 29 -0.071929586361258346
 30 -0.071968092714351006
 31 -0.0719587882204345
 32 -0.040785104061400873
 33 -0.040845119422899763
 34 -0.044303956113807601
 35 -0.044303854607948168
 36 -0.044362310008718202
 37 -0.044470056490178725
Sym= A
Ene= -0.97434511721216277
Spin= Alpha
Occup= 2
 1 0.00010936699750493107
 2 -0.0003026983421477329
 3 -2.7570950624616502e-06
 4 -0.082227306341920881
 5 2.1313184308583905e-05
 6 0.11106838870822122
 7 -0.30710306265667847
 8 -1.2980414618866835e-07
 9 -0.043093920527847489
 10 -0.020120407372521461
 11 -0.11093983459776463
 12 0.3067370781999208
 13 -1.5318682616162615e-05
 14 -0.043200789235539876
 15 0.020113024810176572
 16 0.1232356315157202
 17 -0.33997133415331227
 18 4.2844050171367516e-08
 19 0.0288757254853549
 20 0.019054739089902094
 21 -0.12333345707202184
 22 0.34020952911732028
 23 -0.00013660946374600223
 24 0.028817792774378254
 25 -0.018997824607120781
 26 -7.5381372802909598e-05
 27 -7.3107766846497709e-05
 28 -0.075368430029490521
 29 -0.075368429941359644
 30 0.075281339977373268
 31 0.075264151577442331
 32 -0.084570785004027968
 33 0.084626927087251544
 34 -0.084856598423540874
 35 -0.084856553518889516
 36 0.084895309560956977
 37 0.085111267996691151
Sym= A
Ene= -0.88265655039186874
Spin= Alpha
Occup= 2
 1 -0.12463566234718776
 2 0.36169635247583648
 3 4.2584492135349126e-06
 4 -0.00010392168843859182
 5 -0.0042733460033000797
 6 -0.012229324543168305
 7 0.036529238431183803
 8 7.1908824992427999e-07
 9 -0.11502105548676303
 10 -0.0029535481947902563
 11 -0.01246873129758855
 12 0.037232494751291582
 13 2.1228453833311332e-05
 14 0.11498910336411176
 15 -0.0029699279163329
 16 0.13197334757140081
 17 -0.3810920697495459
 18 2.1504370330506523e-07
 19 -0.027767661071000413
 20 -0.0053542944151657324
 21 0.13194188488998299
 22 -0.38095738785453764
 23 0.00020048880121666891
 24 0.02788089888216885
 25 -0.005470706781655686
 26 0.10320980210797998
 27 0.1032050034902434
 28 0.012044586186431346
 29 0.012043661515466344
 30 0.012243263981021858
 31 0.012268212893722704
 32 -0.12470188300109479
 33 -0.12465384433365073
 34 -0.11434017908826832
 35 -0.11433984086512022
 36 -0.11426544741732877
 37 -0.11457542970332056
Sym= A
Ene= -0.78763362132094639
Spin= Alpha
Occup= 2
 1 -0.00010574505088240603
 2 0.00032323603469784493
 3 -1.1259561907199612e-05
 4 0.11422285043596536
 5 6.5688404650933365e-05
 6 -0.11420898522889454
 7 0.34983807332047834
 8 -3.1587751589169615e-06
 9 -0.040970203420403285
 10 -0.058568164202623334
 11 0.1143142574407414
 12 -0.35016442457817859
 13 -3.1899701979918984e-05
 14 -0.040792699988917422
 15 0.058664571051586456
 16 0.09507710422912255
 17 -0.2884019493450023
 18 -6.9184138994725758e-07
 19 -0.089104246982954674
 20 -0.063530855373954601
 21 -0.094974977270319477
 22 0.2880471000631869
 23 -0.0002340307524922017
 24 -0.089128473111385276
 25 0.063640936935953046
 26 0.00012376881438879976
 27 0.00013907405834430285
 28 0.13651976908911739
 29 0.1365245787373775
 30 -0.13665269748873199
 31 -0.13668873610403867
 32 -0.11855787859521165
 33 0.11838560022708626
 34 -0.12206186655158759
 35 -0.12206278545690717
 36 0.12188337322517272
 37 0.12221557132129757
Sym= A
Ene= -0.75556338204826634
Spin= Alpha
Occup= 2
 1 0.11440883514259015
 2 -0.35703796574395963
 3 9.2026715010633681e-06
 4 4.3507170205502072e-05
 5 -0.15410344067800749
 6 -0.09048551688211999
 7 0.28254288273060968
 8 1.9671865618476388e-06
 9 0.030175085078275644
 10 -0.13069324652181838
 11 -0.090398329830169183
 12 0.28227220660685659
 13 1.9357758546553852e-05
 14 -0.030229089857161752
 15 -0.13061663899153605
 16 0.037723190118947141
 17 -0.11729049353544402
 18 6.5208989268708056e-07
 19 -0.037650058171743599
 20 -0.073604624844249844
 21 0.037612672155438356
 22 -0.11692274887135638
 23 0.00012846461448329726
 24 0.037570621163716865
 25 -0.073560853817180472
 26 -0.18953281941860847
 27 -0.18954654360753584
 28 0.15434958654970088
 29 0.15434749438371681
 30 0.15421685861190795
 31 0.15423547892160222
 32 -0.030289941133811536
 33 -0.030125828413538371
 34 -0.074559439759529583
 35 -0.074558440158968592
 36 -0.074349926206799713
 37 -0.074506801164035366
Sym= A
Ene= -0.61779589637627552
Spin= Alpha
Occup= 2
 1 -2.4006933222791476e-06
 2 8.1117637824710639e-06
 3 0.26517768489344273
 4 3.084541318563712e-05
 5 5.3322036664124172e-05
 6 -7.047237558536183e-06
 7 2.3678219946398364e-05
 8 0.2330307119699348
 9 1.5018131948331902e-05
 10 1.7996386966870936e-05
 11 1.2714586241046942e-05
 12 -3.6957988927007272e-05
 13 0.23339628527986581
 14 -8.9515174964203647e-05
 15 3.7965619360168763e-05
 16 4.0424391077422441e-06
 17 -1.2801928902245652e-05
 18 0.14365073247472235
 19 -2.8870539168388223e-05
 20 -5.122674832176865e-06
 21 -6.3207168122249473e-05
 22 0.00025267467881687336
 23 0.14440120262190045
 24 -6.7514127889487755e-05
 25 -8.056978041492281e-05
 26 0.20008127887235197
 27 -0.20001856240505286
 28 0.17558154017840327
 29 -0.1755852538437688
 30 -0.17588758465485385
 31 0.1758053131189749
 32 -2.3315744383422475e-05
 33 0.00022254770489615685
 34 -0.10980464966819828
 35 0.10978880600609674
 36 0.11038791701013015
 37 -0.11043863385323345
Sym= A
Ene= -0.56631631318314479
Spin= Alpha
Occup= 2
 1 -4.9254985360855701e-06
 2 1.5100151435826484e-05
 3 -0.00073590832770562388
 4 0.0024697081407157873
 5 0.00017022098630762426
 6 -0.00011469352211225706
 7 0.00044299691356338886
 8 -0.23178744257691419
 9 -0.00080648891397114048
 10 0.0021807279656328791
 11 0.00011969629710756858
 12 -0.00045024391275583437
 13 0.23094428248588467
 14 -0.0011077141665822071
 15 -0.0021037864084843282
 16 3.4541725349532635e-05
 17 -8.3219418303271067e-05
 18 -0.25509535066756378
 19 -0.0020357758175299939
 20 0.001913572178594143
 21 -0.0001138753328692175
 22 0.00043730657228286914
 23 0.25590164495855255
 24 -0.0021402419420530729
 25 -0.0022791423344050532
 26 -0.00046964454179944625
 27 0.00067446847137910763
 28 -0.18168537931960763
 29 0.17957679397653714
 30 -0.17894331456380089
 31 0.18093713112633347
 32 -0.0027700832285674757
 33 0.003272402719501077
 34 0.20513102615011344
 35 -0.20311819818273635
 36 0.20364615585203641
 37 -0.20607021344693416
Sym= A
Ene= -0.56502499654476124
Spin= Alpha
Occup= 2
 1 -3.2901678956863914e-06
 2 1.1098778104779594e-05
 3 8.9147784643666954e-05
 4 -0.22734523590603453
 5 4.1283254977496464e-05
 6 0.0099588819062227524
 7 -0.038925537643321406
 8 -0.002522127538473618
 9 0.083259213992238262
 10 -0.20279562788139802
 11 -0.0099542497153167694
 12 0.038906410826428116
 13 0.0026157638869871631
 14 0.083189755255000705
 15 0.20282343777661577
 16 -0.0026200472488590813
 17 0.005841359356779075
 18 -0.0028329412415436222
 19 0.18776712726626246
 20 -0.18736693319693606
 21 0.0026148326278029742
 22 -0.0058531858941171348
 23 0.0027339232218997508
 24 0.18780371214955488
 25 0.18726727565920517
 26 9.6157129198792907e-05
 27 -4.5330300935350547e-05
 28 0.097109569826714301
 29 0.10104496521486141
 30 -0.10115015860274285
 31 -0.097051068664388701
 32 0.26167095668262874
 33 -0.26163262347466748
 34 -0.097534140748912326
 35 -0.10207397834327557
 36 0.10195198420829109
 37 0.097425972806907124
Sym= A
Ene= -0.52303929708579644
Spin= Alpha
Occup= 2
 1 -0.015458602696727806
 2 0.048456274143262243
 3 -0.00041195717982399105
 4 6.1663698298433978e-05
 5 0.22026862913316453
 6 0.0078864696205930146
 7 -0.030795072145825324
 8 0.00013348798378514192
 9 0.13541355381586256
 10 -0.038039067669034365
 11 0.0078856955213917543
 12 -0.030791863281294102
 13 -0.00033830312918863459
 14 -0.13540621953814941
 15 -0.038217177783382607
 16 0.0028474652485559232
 17 -0.0087921951578694788
 18 0.00049891486553552871
 19 0.10705442370696835
 20 -0.28299489375149584
 21 0.0028562006735876997
 22 -0.0087714664228131303
 23 0.00032476313712710361
 24 -0.10719933825986051
 25 -0.28296805757382554
 26 0.14838303348715046
 27 0.14905833802781515
 28 0.010789847608074122
 29 0.010576369400767083
 30 0.01108061238363961
 31 0.010498850471779092
 32 0.26664201595819459
 33 0.26675514941491302
 34 -0.17174491601578393
 35 -0.17090211421905852
 36 -0.171050375162667
 37 -0.17137966524575857
Sym= A
Ene= -0.5099691708823495
Spin= Alpha
Occup= 2
 1 0.038975764320576332
 2 -0.14079957724567727
 3 -0.00024056188377488428
 4 3.127997361025507e-05
 5 0.19857082948849722
 6 -0.027885972267127548
 7 0.10120684842920272
 8 1.4936006385061912e-05
 9 0.25174878653550725
 10 0.1133307950819178
 11 -0.027880064216226502
 12 0.10118340201782973
 13 -0.00010062704488766299
 14 -0.25178602699359148
 15 0.11330378356315701
 16 -0.0025733852715795094
 17 0.016265315549000958
 18 0.00025942130256853991
 19 -0.3067275626215345
 20 -0.040994916359703738
 21 -0.0025787020375331918
 22 0.016291519661043377
 23 0.00027913211054998212
 24 0.30672828146519687
 25 -0.041049992765808993
 26 0.061982266170045611
 27 0.062380250099959018
 28 -0.027721144986048069
 29 -0.02774304631575239
 30 -0.027637933621684416
 31 -0.027811934992834648
 32 -0.23630176197619063
 33 -0.23622376657249239
 34 -0.026806686153530587
 35 -0.026359340894863109
 36 -0.02636804666948285
 37 -0.026830047694363285
Sym= A
Ene= -0.50133509044768165
Spin= Alpha
Occup= 2
 1 -1.0686375288982757e-05
 2 5.1966793895560406e-05
 3 -0.27986644848585146
 4 -0.00015086261940771542
 5 -0.00049590263183292343
 6 1.0325499506951731e-05
 7 -3.9190247972697995e-05
 8 -0.025305073288964721
 9 -0.00042384626007469368
 10 -0.00021604984191688232
 11 1.0309314035836193e-05
 12 -1.1436141604553995e-05
 13 -0.027308448202021506
 14 0.000327800330779882
 15 0.00024821099979135974
 16 3.7148308465216714e-06
 17 -2.54758479530896e-05
 18 0.2923862677512577
 19 0.00017164718903735121
 20 0.00053024180151916092
 21 -7.7164366117763909e-05
 22 0.00037045704290447282
 23 0.29237149247665201
 24 -9.2287134152224857e-05
 25 0.00034385633687309888
 26 -0.23483411609084326
 27 0.2342809081278211
 28 -0.022920028056653222
 29 0.023152997814337991
 30 0.02460351909515
 31 -0.024940528056752547
 32 -0.00020556093150028278
 33 9.5326362208091213e-05
 34 -0.2555180789867213
 35 0.25617144758877647
 36 0.25617603085301549
 37 -0.25575888597310292
Sym= A
Ene= -0.46221289585442155
Spin= Alpha
Occup= 2
 1 -7.3911485559110461e-06
 2 3.3994332874337103e-05
 3 -0.00017427485096021427
 4 0.14276820358360803
 5 -0.00018623549663559453
 6 -0.0046308017634169602
 7 0.026016920981784528
 8 -0.00032096391915092633
 9 0.094262809073395348
 10 0.26372407291406164
 11 0.0046179795637528625
 12 -0.025963652946826843
 13 0.00039731463837901508
 14 0.094399428864736401
 15 -0.26349026133855186
 16 -0.01145710240403593
 17 0.049837474171028379
 18 0.00037489610220139947
 19 -0.080246195199152381
 20 -0.28056320903124354
 21 0.011431420591763606
 22 -0.04979585469933958
 23 -9.8996317000289353e-05
 24 -0.080126958211627575
 25 0.28062982214652288
 26 -0.00027258184244623087
 27 3.8216678380458593e-05
 28 -0.16639775213439029
 29 -0.16580761741188707
 30 0.1655906604567281
 31 0.1663308004181252
 32 0.14324710662784126
 33 -0.14339922104185551
 34 -0.17438765883508026
 35 -0.17366884561868873
 36 0.17400819527921577
 37 0.17393258253439456
Sym= A
Ene= -0.45081366530936107
Spin= Alpha
Occup= 2
 1 -9.7843957935042274e-07
 2 -1.0350048564629786e-06
 3 -0.0010330076660792027
 4 -0.00010721966834822678
 5 9.9191134400169927e-05
 6 9.0577845199377605e-06
 7 -4.5410765625787331e-05
 8 -0.26445793057915679
 9 -8.3421974442146276e-05
 10 -0.00030387206391702646
 11 -2.7421560232409373e-06
 12 4.1987872414525563e-06
 13 0.2653803578189925
 14 -0.00015891398671177246
 15 0.00020252644850919072
 16 1.5852143858890407e-05
 17 -6.7155923143931851e-05
 18 0.23025436136473815
 19 0.00011528465231460869
 20 0.0002708275935277491
 21 2.6668718451847703e-05
 22 -0.00017717269900508994
 23 -0.22931855773060553
 24 0.00014224243905386539
 25 -0.00043639312824894177
 26 -0.00092580016352877847
 27 0.0010521720981466235
 28 -0.25112702188745595
 29 0.25151021357494796
 30 -0.25240053003298024
 31 0.25212662317890516
 32 -0.00011254062166514722
 33 2.9597926762402756e-05
 34 -0.22923516564957433
 35 0.22956798939307324
 36 -0.22890745777090171
 37 0.22837207568766127
Sym= A
Ene= -0.42976414095776333
Spin= Alpha
Occup= 2
 1 5.708276066149322e-06
 2 -2.3596429037644945e-05
 3 0.29544768564169199
 4 -1.7495414721406194e-05
 5 4.9000205239538003e-05
 6 3.0132754957066387e-06
 7 -1.2747590483404433e-05
 8 -0.23978463777216771
 9 2.892729470854096e-05
 10 -3.5838073914630213e-05
 11 3.4656973763935983e-06
 12 -8.6485120951372632e-06
 13 -0.23900582600078962
 14 1.5763284402241522e-05
 15 -5.0278668385860922e-05
 16 5.9613700184703228e-07
 17 -2.6264510789797702e-06
 18 0.11139289022431662
 19 -1.1784019773410976e-05
 20 1.922616608814981e-05
 21 -9.570853021962458e-06
 22 8.3553461765357875e-05
 23 0.11039118523382344
 24 -6.1925354394007454e-05
 25 0.00010572086572285821
 26 0.31478270927301089
 27 -0.31472442802543266
 28 -0.25757572157246589
 29 0.25762166579944851
 30 0.25686374540046886
 31 -0.25678619102915973
 32 -2.7440298410451716e-05
 33 5.3518096540215334e-05
 34 -0.12777365148655995
 35 0.12780117068308072
 36 0.12685059219953249
 37 -0.12671631803392269
Sym= A
Ene= -0.42419523341865495
Spin= Alpha
Occup= 2
 1 0.026012103299113142
 2 -0.11463124049671201
 3 -7.6795065739282303e-05
 4 3.0182448634179716e-05
 5 0.34695054210227061
 6 0.020171921471028531
 7 -0.089215263215269
 8 5.8935039783049831e-05
 9 0.056365142033547914
 10 -0.28957061431294651
 11 0.020176421626355048
 12 -0.089242314531635308
 13 5.2850983449749653e-05
 14 -0.056227426343686625
 15 -0.28975987704705708
 16 0.015485609518876776
 17 -0.064043791136882675
 18 -2.4967301873594051e-05
 19 0.064147724063672071
 20 0.17059621728363158
 21 0.015484132904799617
 22 -0.064079301670848549
 23 -3.4361972980783183e-06
 24 -0.064212324690486905
 25 0.17088620619754807
 26 0.21589160572153931
 27 0.21605164372113092
 28 0.18396197633782355
 29 0.1838358093335051
 30 0.18397195802342942
 31 0.18407782372517198
 32 -0.092108864367174095
 33 -0.092280450833455374
 34 0.10743577289808758
 35 0.10737678397954491
 36 0.10761973117984507
 37 0.10740934171411494
Sym= A
Ene= -0.40107279315469163
Spin= Alpha
Occup= 2
 1 -2.3022556235014649e-08
 2 -1.7572823660172067e-06
 3 6.3408722336418935e-06
 4 0.37413821109834822
 5 1.857243907589102e-05
 6 -0.012392882195548479
 7 0.046484428216356372
 8 4.0610275492458128e-06
 9 -0.33411412985731453
 10 0.046746463880696594
 11 0.012398868015630038
 12 -0.04651235425508287
 13 -3.9232361502403722e-05
 14 -0.33410273716922373
 15 -0.046789857564933215
 16 0.021570422886996139
 17 -0.086158332463174364
 18 -3.1151312466605854e-06
 19 0.267031615750917
 20 0.032122273415682544
 21 -0.02156490129155612
 22 0.086129282130008297
 23 9.7863681877785065e-05
 24 0.26701800616982563
 25 -0.032136884324560834
 26 2.478812649533622e-05
 27 3.4208073204025149e-06
 28 -0.011388850947631278
 29 -0.011394179476920546
 30 0.011458695587913025
 31 0.011369022059662563
 32 0.22047330164168591
 33 -0.22043459290021511
 34 -0.01157245337078177
 35 -0.011578724854631349
 36 0.011662707455911381
 37 0.011486483997216062
Sym= A
Ene= 0.58438355283531973
Spin= Alpha
Occup= 0
 1 0.063249951746407213
 2 -0.33800669894829644
 3 0.00023842946832974084
 4 -6.0870788627128111e-05
 5 0.52447393076032378
 6 -0.052702829021090407
 7 0.27807985894870935
 8 0.00016296561219783702
 9 -0.087385776835273932
 10 0.47651269181299782
 11 -0.052719875499103584
 12 0.27817777462025822
 13 0.00029163873340469536
 14 0.087113590822881837
 15 0.47657516284945151
 16 0.043161309292715083
 17 -0.24341591695451642
 18 8.4284721874591605e-05
 19 0.1016599515274246
 20 0.35879695336369011
 21 0.043194109040536825
 22 -0.24350743290029558
 23 0.00040249517298484889
 24 -0.10173623102168468
 25 0.3590091982335879
 26 -0.22238838982364864
 27 -0.22189250028118754
 28 0.21407630534719821
 29 0.21442239747526784
 30 0.21458617167140806
 31 0.21391469786273737
 32 0.32695510608729
 33 0.32714942568872191
 34 -0.15401902499791356
 35 -0.1541942778619001
 36 -0.15469923312867656
 37 -0.15367699943017332
Sym= A
Ene= 0.60926388524513264
Spin= Alpha
Occup= 0
 1 -2.6465426883905545e-05
 2 0.00013152022975374962
 3 0.46237917298169767
 4 0.0006958346315878186
 5 -0.00034454913591622547
 6 0.00010360865485039345
 7 -0.00057848649400096038
 8 0.41453041674912161
 9 0.00041388143545167694
 10 -0.00051980707389467072
 11 7.4897794009818179e-05
 12 -0.00040420041242515226
 13 0.41322439988429666
 14 0.00075765993441144594
 15 -0.0003997810178460805
 16 -9.4285923736304322e-06
 17 4.9747548156712258e-05
 18 0.25583688383574388
 19 3.0523473177296789e-05
 20 -0.00039191624431726203
 21 -0.00037291413966534175
 22 0.0020856700280711088
 23 0.25320387606919487
 24 0.00042872130539161544
 25 0.0004468002694603636
 26 -0.4916609403910906
 27 0.4921215346751866
 28 -0.43940391407332913
 29 0.43920063252580205
 30 0.43771616949244346
 31 -0.43781577825802642
 32 -0.00039870981332287565
 33 -0.00038974135571104388
 34 0.26317693410423298
 35 -0.26266139626507151
 36 -0.26144758113014122
 37 0.25935079539980577
Sym= A
Ene= 0.64692057006372017
Spin= Alpha
Occup= 0
 1 7.7293373411300412e-06
 2 -5.0823283166630732e-05
 3 0.00096080207441728838
 4 -0.68371261667096894
 5 -3.5078537714647492e-05
 6 -0.032135750879095946
 7 0.18956664887140692
 8 0.0021700737301359289
 9 -0.56955286644184722
 10 0.038615911467909644
 11 0.032223783265102834
 12 -0.1900618757864827
 13 -0.00094469009846877804
 14 -0.56919485598582831
 15 -0.038934056795566767
 16 -0.054643189459200749
 17 0.31760432041594688
 18 0.0018652138344518317
 19 -0.34056780198861203
 20 0.024711550395810748
 21 0.054379562137829102
 22 -0.31608192587789519
 23 -0.0023950828742281341
 24 -0.34038961301470333
 25 -0.024465313422543454
 26 -0.00091866352929968482
 27 0.0010886465408464978
 28 -0.063997040873341612
 29 -0.059426943962629625
 30 0.060666132567100184
 31 0.062838721208789153
 32 0.22062818148853999
 33 -0.22107071432262482
 34 -0.15985175668115795
 35 -0.16362802286165562
 36 0.1633106069368841
 37 0.15868246108919251
Sym= A
Ene= 0.66419369984499321
Spin= Alpha
Occup= 0
 1 0.0005301049783570476
 2 -0.0032298205909228718
 3 0.0027991045309566595
 4 -0.0030640099227080102
 5 -0.00035712596107529858
 6 0.00039991527680266074
 7 -0.0023755410682305979
 8 -0.42058903907124001
 9 -0.0057598399331635032
 10 -0.00081926710588310116
 11 0.00073913751870954912
 12 -0.0043840187266947746
 13 0.42341782976791448
 14 0.0001530866962212299
 15 -0.00065197867179730149
 16 -0.00056467884475286357
 17 0.0031983924021662421
 18 -0.44772093383506151
 19 -0.005406713853853936
 20 -0.00089452571004026103
 21 -0.00068299540491172355
 22 0.0039152436698082207
 23 0.44473013095699465
 24 0.0014088781833311533
 25 0.0014594182476822919
 26 -0.001059497068301855
 27 0.004691501410777706
 28 0.43839170437204206
 29 -0.43754237953258884
 30 0.44224844167939475
 31 -0.43907232440780192
 32 0.0030990366620545062
 33 0.00024389573693029684
 34 -0.44992271098172232
 35 0.44802661523582893
 36 -0.44884416049923903
 37 0.44393592179852698
Sym= A
Ene= 0.66995383333753777
Spin= Alpha
Occup= 0
 1 -0.096248960047658524
 2 0.58542600602256278
 3 0.00049861423050856924
 4 -0.00011963497015127304
 5 0.049740342233355404
 6 -0.077057961790748447
 7 0.46637587128823499
 8 -0.0026152287393981502
 9 0.43274587143579873
 10 0.025380176141693234
 11 -0.07707785741068568
 12 0.46649662199355335
 13 0.0030812422028273817
 14 -0.43323839283614607
 15 0.025554826829756804
 16 0.03061480374710111
 17 -0.16219615564734294
 18 -0.0030344160215390781
 19 0.55214741029377912
 20 0.053313481234563434
 21 0.030513033337205561
 22 -0.16155292946974339
 23 0.0024255310102033233
 24 -0.55276650260762572
 25 0.053852706978349457
 26 -0.29454630467590515
 27 -0.29352606179178314
 28 -0.17428394533300248
 29 -0.17970381481315534
 30 -0.17376312184542989
 31 -0.18006198302963747
 32 -0.40863554132938029
 33 -0.40915661641225987
 34 0.05452479242641272
 35 0.060587602450085785
 36 0.054475603871080934
 37 0.059474102218637165
Sym= A
Ene= 0.701825595318881
Spin= Alpha
Occup= 0
 1 1.3870779686069127e-05
 2 -9.0958877888723351e-05
 3 -0.0010250627106117766
 4 0.019957420035877471
 5 -0.00024870128880715152
 6 -0.039657647394358252
 7 0.26177300694845157
 8 0.0005020901774080369
 9 -0.21963572235096057
 10 -0.32835758398603238
 11 0.039622861641404092
 12 -0.26154547055441191
 13 -0.0010240153882336172
 14 -0.21980462290248048
 15 0.32798699481072979
 16 -0.039147945010347213
 17 0.23778332776329761
 18 0.0012392975160170137
 19 0.14032676287587223
 20 -0.50485966776616997
 21 0.039218688103844504
 22 -0.23809029215638325
 23 0.00053999654542286795
 24 0.14076435478034158
 25 0.50505387923703571
 26 0.0012155676177385043
 27 -0.00082619461753969032
 28 -0.34206145758570283
 29 -0.34105325073931025
 30 0.34025076442963503
 31 0.34219380817351486
 32 -0.5737958079922334
 33 0.57453444896797845
 34 0.23450250679739662
 35 0.23209703678013496
 36 -0.23384394485906257
 37 -0.23268992501715427
Sym= A
Ene= 0.72735764006374015
Spin= Alpha
Occup= 0
 1 -0.00016269972752365605
 2 0.0010338794615775825
 3 0.052965510710313149
 4 -0.3639664864736788
 5 0.00066716294146972456
 6 -0.11430384031002101
 7 0.70088161588148101
 8 3.2134728462719732e-05
 9 0.12826452158610419
 10 0.17358916252473688
 11 0.11433056919601293
 12 -0.70093349583410836
 13 0.002539066576980587
 14 0.12870490731610368