[Molden Format]
[Title]
generated by GANSU
[Atoms] (Angs)
C 1 6 -0.180227 0.360945 -1.1203
C 2 6 -0.180227 1.55929 -0.407861
C 3 6 -0.180227 1.50319 0.986935
N 4 7 -0.180227 0.360945 1.29018
C 5 6 -0.180227 -0.781301 0.986935
C 6 6 -0.180227 -0.837402 -0.407861
H 7 1 -0.180227 0.360945 -2.20655
H 8 1 -0.180227 2.51795 -0.917078
H 9 1 -0.180227 2.42129 1.5721
H 10 1 -0.180227 -1.6994 1.5721
H 11 1 -0.180227 -1.79606 -0.917078
[GTO]
1 0
 s 3 1.00
    13.0451 0.535328
    3.53051 0.444635
    71.6168 0.154329
 s 3 1.00
    2.94125 -0.0999672
    0.683483 0.399513
    0.22229 0.700115
 p 3 1.00
    2.94125 0.155916
    0.683483 0.607684
    0.22229 0.391957

2 0
 s 3 1.00
    71.6168 0.154329
    13.0451 0.535328
    3.53051 0.444635
 s 3 1.00
    2.94125 -0.0999672
    0.683483 0.399513
    0.22229 0.700115
 p 3 1.00
    2.94125 0.155916
    0.683483 0.607684
    0.22229 0.391957

3 0
 s 3 1.00
    71.6168 0.154329
    3.53051 0.444635
    13.0451 0.535328
 s 3 1.00
    2.94125 -0.0999672
    0.683483 0.399513
    0.22229 0.700115
 p 3 1.00
    0.22229 0.391957
    2.94125 0.155916
    0.683483 0.607684

4 0
 s 3 1.00
    4.88566 0.444635
    18.0523 0.535328
    99.1062 0.154329
 s 3 1.00
    0.285714 0.700115
    0.878497 0.399513
    3.78046 -0.0999672
 p 3 1.00
    3.78046 0.155916
    0.878497 0.607684
    0.285714 0.391957

5 0
 s 3 1.00
    71.6168 0.154329
    13.0451 0.535328
    3.53051 0.444635
 s 3 1.00
    0.683483 0.399513
    2.94125 -0.0999672
    0.22229 0.700115
 p 3 1.00
    2.94125 0.155916
    0.683483 0.607684
    0.22229 0.391957

6 0
 s 3 1.00
    3.53051 0.444635
    71.6168 0.154329
    13.0451 0.535328
 s 3 1.00
    0.683483 0.399513
    2.94125 -0.0999672
    0.22229 0.700115
 p 3 1.00
    2.94125 0.155916
    0.22229 0.391957
    0.683483 0.607684

7 0
 s 3 1.00
    0.168855 0.444635
    0.623914 0.535328
    3.42525 0.154329

8 0
 s 3 1.00
    3.42525 0.154329
    0.623914 0.535328
    0.168855 0.444635

9 0
 s 3 1.00
    3.42525 0.154329
    0.623914 0.535328
    0.168855 0.444635

10 0
 s 3 1.00
    3.42525 0.154329
    0.623914 0.535328
    0.168855 0.444635

11 0
 s 3 1.00
    3.42525 0.154329
    0.623914 0.535328
    0.168855 0.444635

[MO]
Sym= A
Ene= -15.5213
Spin= Alpha
Occup= 2
 1 4.2135937155697462e-05
 2 -2.3402275241976401e-05
 3 -1.9986674789135865e-13
 4 2.9371017621485414e-16
 5 -0.00035852334352840014
 6 4.5773257326669498e-05
 7 0.00050589656395388211
 8 6.9255890229754421e-14
 9 0.00035768696350172856
 10 9.649270184258959e-05
 11 0.0004053315638628982
 12 -0.0088585800433722776
 13 2.1079652111226812e-13
 14 0.0048438206078385022
 15 -0.00081149733299504853
 16 0.993255145929404
 17 0.035229448047443393
 18 -6.4873580227535013e-13
 19 3.0820658769677054e-15
 20 -0.0027741718853707118
 21 0.0004053315638608985
 22 -0.0088585800433636005
 23 2.127197418136721e-13
 24 -0.0048438206078357578
 25 -0.00081149733299550476
 26 4.5773257325869804e-05
 27 0.00050589656394991317
 28 6.7466979605554669e-14
 29 -0.00035768696350057323
 30 9.6492701840559963e-05
 31 -0.00014833200413052829
 32 -0.00025679129330348759
 33 0.00010763388931032708
 34 0.00010763388930911217
 35 -0.00025679129330120551
Sym= A
Ene= -11.050196620802339
Spin= Alpha
Occup= 2
 1 5.0756658114023203e-13
 2 -4.1683914196904147e-12
 3 -9.3906854034927296e-17
 4 0.0043642460993614214
 5 -1.1870460912008394e-12
 6 -0.70137356063336709
 7 -0.025204799418127272
 8 -4.7599835357480637e-13
 9 0.00050267993174811553
 10 -0.00077081156949239144
 11 -0.018758750064772518
 12 0.0045720358001752077
 13 2.0914211192499544e-13
 14 0.00014518047716103807
 15 -0.0027079668813284226
 16 5.7422953461667051e-14
 17 -4.3534191768867296e-14
 18 5.7231572482336759e-17
 19 -0.000189966834663066
 20 1.3382722910303297e-13
 21 0.018758750075692828
 22 -0.0045720358042059314
 23 -2.0968376788344263e-13
 24 0.00014518047723052839
 25 0.0027079668837665469
 26 0.70137356123544936
 27 0.025204799440074914
 28 4.7623741242394242e-13
 29 0.00050267993216861076
 30 0.00077081157006437628
 31 5.8030049738400418e-14
 32 0.0046807503849391335
 33 -6.9586101564429937e-06
 34 6.9586101361593245e-06
 35 -0.0046807503890688457
Sym= A
Ene= -11.050139354112929
Spin= Alpha
Occup= 2
 1 -0.001196956545095041
 2 0.0097142423035218115
 3 3.6135814760069824e-13
 4 1.8729670786895327e-12
 5 0.0027673233519915027
 6 -0.70155887696633679
 7 -0.025580579867631136
 8 -5.2073525837579081e-13
 9 0.00049089038201894036
 10 -0.00067033169409608381
 11 -0.011913798565496608
 12 0.004728517328622981
 13 2.8515725362442998e-13
 14 7.7884439803251382e-05
 15 -0.0028421809491013116
 16 -0.00013212257994607666
 17 8.6030275634461125e-05
 18 -1.9553380692541034e-13
 19 -8.1680961400391549e-14
 20 -0.00031084903503697872
 21 -0.011913798549433474
 22 0.0047285173246972992
 23 2.8495772897810986e-13
 24 -7.7884439678831648e-05
 25 -0.0028421809467769729
 26 -0.70155887636440195
 27 -0.025580579845998382
 28 -5.2048342277957499e-13
 29 -0.00049089038158774741
 30 -0.00067033169343447242
 31 -0.00013441568740155604
 32 0.0048114552744635431
 33 1.8518228843526297e-05
 34 1.8518228849817936e-05
 35 0.0048114552704458273
Sym= A
Ene= -11.043918518615804
Spin= Alpha
Occup= 2
 1 -1.3602887430967525e-14
 2 2.4683374104376418e-14
 3 -2.2152725169394602e-16
 4 0.00023789461895859
 5 1.3280243524874461e-15
 6 -0.018211369799428501
 7 -0.0059776361260333718
 8 -1.0552016932934739e-13
 9 0.00023682831069930292
 10 -0.0028619781968370261
 11 0.70113462215014166
 12 0.026878017088886586
 13 6.2166607132986058e-14
 14 -0.0023045067930333304
 15 -0.00097219206958974735
 16 -8.8638983685729877e-16
 17 -5.9907958884743872e-13
 18 -2.3890134407712174e-16
 19 -0.0036800218027332838
 20 4.7105454245190792e-14
 21 -0.70113462208769717
 22 -0.026878017086429767
 23 -6.153564886106009e-14
 24 -0.0023045067928053335
 25 0.00097219206952537675
 26 0.018211369798459217
 27 0.0059776361255104715
 28 1.055522381030809e-13
 29 0.00023682831065948895
 30 0.0028619781965729951
 31 -5.9923935488824843e-15
 32 0.00021924397413797703
 33 -0.0044179700261858142
 34 0.0044179700257818465
 35 -0.00021924397412891952
Sym= A
Ene= -11.04389002574877
Spin= Alpha
Occup= 2
 1 0.00035460485056596153
 2 -0.00055548708813886916
 3 -6.6516725655960114e-14
 4 1.2932773779862811e-14
 5 -4.1918533448454119e-05
 6 0.011290231200195788
 7 0.0058883086614573196
 8 1.20640992498493e-13
 9 -0.00045132820168821764
 10 0.0029678810523668547
 11 -0.70128801968919074
 12 -0.027590204446713323
 13 -1.4836228576588185e-13
 14 0.0025572918656816966
 15 0.00072523038257692369
 16 1.3220350826872368e-05
 17 0.013449878405497063
 18 1.8861720593515924e-13
 19 -1.5865458337373311e-13
 20 -0.0010532383745586941
 21 -0.70128801975160537
 22 -0.02759020444909617
 23 -1.4457168026976923e-13
 24 -0.0025572918658819787
 25 0.00072523038266485683
 26 0.011290231202513899
 27 0.0058883086620065027
 28 1.170564790686139e-13
 29 0.00045132820171191369
 30 0.0029678810526195033
 31 0.00012269172420376883
 32 -0.00010095942712865943
 33 0.0045333897572851405
 34 0.004533389757676704
 35 -0.00010095942714786927
Sym= A
Ene= -10.860413761200023
Spin= Alpha
Occup= 2
 1 0.99185480069911025
 2 0.037960368844878314
 3 -5.9077160472139253e-14
 4 -7.8298810351677066e-17
 5 0.0015512136028307988
 6 -3.5810367912028823e-05
 7 -0.007654710243577033
 8 3.6063285847184e-14
 9 0.0035889252027661183
 10 0.0019923574692486223
 11 0.00029425339983748649
 12 0.00035630660576822657
 13 5.3118110066797819e-15
 14 -2.8006401945122279e-05
 15 -9.0172591210698267e-05
 16 8.8405556093401909e-05
 17 -0.0003732524870857228
 18 -1.2483356958742298e-14
 19 -2.4154640918946729e-17
 20 0.00033335847372439664
 21 0.00029425339984071795
 22 0.00035630660576827964
 23 5.3259528759116644e-15
 24 2.800640194512235e-05
 25 -9.017259121064796e-05
 26 -3.5810367903824238e-05
 27 -0.0076547102435767589
 28 3.6063168939716591e-14
 29 -0.0035889252027661886
 30 0.0019923574692487802
 31 -0.0069266635719591419
 32 0.00010741971638003221
 33 -7.5667804982332181e-05
 34 -7.5667804982369627e-05
 35 0.00010741971637998551
Sym= A
Ene= -1.3283969323175906
Spin= Alpha
Occup= 2
 1 0.019597949330176976
 2 -0.039921485050740842
 3 8.5806299662717569e-12
 4 7.2788754084807924e-16
 5 -0.013529906107093469
 6 0.036203167967968276
 7 -0.080145345774875643
 8 -6.7070391794282892e-12
 9 0.012351876906434628
 10 -0.029982692835936114
 11 0.10624054396088682
 12 -0.2075015673932564
 13 -1.2255344221856011e-11
 14 0.10353610148472001
 15 -0.0035454873324517635
 16 0.20782357854082312
 17 -0.63263937784836632
 18 4.2799782398142379e-11
 19 -1.6092379943197444e-15
 20 0.062035832962496415
 21 0.1062405439608886
 22 -0.20750156739326389
 23 -1.2255638655371059e-11
 24 -0.10353610148471822
 25 -0.0035454873324505145
 26 0.036203167967969886
 27 -0.080145345774879501
 28 -6.7067908822105132e-12
 29 -0.012351876906435438
 30 -0.029982692835937099
 31 -0.0036556814832362661
 32 -0.0075124632316486764
 33 -0.031174628238798657
 34 -0.031174628238797051
 35 -0.0075124632316497606
Sym= A
Ene= -1.0504192206303293
Spin= Alpha
Occup= 2
 1 -5.6639676780832542e-15
 2 1.3603474454409658e-14
 3 -4.95520733716303e-16
 4 -0.042007943342329018
 5 2.584496206137862e-15
 6 0.07624189056609515
 7 -0.19594533976298334
 8 -2.3354012688066595e-12
 9 0.0013530120585842484
 10 -0.060998609262749193
 11 0.15183240007785498
 12 -0.33816981483159664
 13 1.3327805049234654e-12
 14 0.06859074783800452
 15 0.017326452725721656
 16 4.2367467761582969e-15
 17 -1.237136728967359e-14
 18 -7.1977192273858754e-16
 19 -0.35880001857370314
 20 -3.0607871809199506e-15
 21 -0.15183240007785437
 22 0.33816981483159403
 23 -1.3327905950014295e-12
 24 0.068590747837996
 25 -0.01732645272573256
 26 -0.076241890566107265
 27 0.19594533976301734
 28 2.335392066839569e-12
 29 0.0013530120585880244
 30 0.060998609262750116
 31 2.3735977369406927e-15
 32 -0.041298650390296628
 33 -0.084571939744537986
 34 0.084571939744537417
 35 0.041298650390306141
Sym= A
Ene= -0.97931798653717683
Spin= Alpha
Occup= 2
 1 0.14411970059693904
 2 -0.35032553235223907
 3 -2.1738035330742672e-11
 4 5.9500613844350936e-15
 5 -0.067982586271193635
 6 0.13372469057290584
 7 -0.36131689384791754
 8 -9.9060847546593271e-12
 9 0.06212190343560621
 10 0.017168059327901237
 11 0.011217654179376093
 12 -0.04111094869335058
 13 4.5770171139123691e-12
 14 -0.054222947421287977
 15 0.10668645173152511
 16 -0.084066055353759911
 17 0.30042968321603797
 18 1.2159727622531154e-11
 19 -2.6048302242969345e-14
 20 0.049397532801439131
 21 0.011217654179359226
 22 -0.041110948693312631
 23 4.5768598137239307e-12
 24 0.054222947421297858
 25 0.10668645173153379
 26 0.13372469057291109
 27 -0.36131689384793625
 28 -9.9058607152201325e-12
 29 -0.062121903435605988
 30 0.017168059327911118
 31 -0.07674545968465786
 32 -0.087568203604694264
 33 -0.0064789646908392463
 34 -0.006478964690829008
 35 -0.087568203604703757
Sym= A
Ene= -0.82764561126796266
Spin= Alpha
Occup= 2
 1 8.9696453030037182e-15
 2 -2.2635776597686569e-14
 3 -5.1629879805627774e-16
 4 -0.13250017986435436
 5 -4.3137653580821237e-15
 6 0.1375421759713478
 7 -0.39930177099072101
 8 -5.7107635982321061e-12
 9 -0.039802286512641304
 10 0.023418171438098514
 11 -0.027938936902793934
 12 0.033014035739872251
 13 1.9836248521223508e-11
 14 -0.10705627109515818
 15 0.13720730997633693
 16 -2.1295837432496489e-15
 17 7.4220481979458444e-15
 18 -1.0505378550015435e-15
 19 0.30163888023731966
 20 5.461669358384186e-15
 21 0.027938936902793667
 22 -0.033014035739870509
 23 -1.9836757128221423e-11
 24 -0.10705627109515702
 25 -0.13720730997632669
 26 -0.13754217597133989
 27 0.39930177099070291
 28 5.7093829972306015e-12
 29 -0.039802286512663314
 30 -0.023418171438098132
 31 -6.2215024922993735e-15
 32 -0.17226038351398429
 33 0.011145043770471298
 34 -0.011145043770468047
 35 0.1722603835139912
Sym= A
Ene= -0.76520131325260599
Spin= Alpha
Occup= 2
 1 -0.11877167170926244
 2 0.32056695052296741
 3 -2.5990691429182474e-11
 4 -9.0875154175950217e-15
 5 0.0022707396963559763
 6 0.029944928782718989
 7 -0.086636720954593946
 8 1.0534708846290844e-11
 9 -0.15079105243143631
 10 -0.12175393135574716
 11 0.0890905816440936
 12 -0.28267546696596096
 13 9.5703186340916402e-12
 14 -0.1658032828875661
 15 0.033652407699758149
 16 -0.058681801052936869
 17 0.2203844046078145
 18 -3.9163288116409052e-11
 19 3.8123398721411507e-15
 20 -0.011129893975547159
 21 0.089090581644094946
 22 -0.28267546696596257
 23 9.5697110832483634e-12
 24 0.16580328288756369
 25 0.033652407699756019
 26 0.029944928782711221
 27 -0.086636720954570964
 28 1.0535310107339706e-11
 29 0.15079105243144697
 30 -0.12175393135575707
 31 0.12486802147643582
 32 -0.085262265595875408
 33 -0.19296495381610082
 34 -0.1929649538161029
 35 -0.085262265595871731
Sym= A
Ene= -0.6729751303619721
Spin= Alpha
Occup= 2
 1 0.090716454719095896
 2 -0.26969829264736339
 3 -6.206295158726151e-11
 4 7.1036767668051513e-15
 5 0.1206708018385927
 6 -0.012653924649043167
 7 0.025371969819364109
 8 -1.1434044301288514e-10
 9 -0.039150237508624355
 10 0.15921914946428903
 11 0.011784328616140403
 12 -0.052735716111777152
 13 -2.9788145144449569e-10
 14 -0.10951110068868317
 15 -0.2410993449293824
 16 0.023212760263327446
 17 -0.11263038866521007
 18 -9.2878124976253739e-10
 19 1.4237330542618263e-14
 20 -0.23352215635930823
 21 0.011784328616137667
 22 -0.052735716111766195
 23 -2.9788304502895761e-10
 24 0.10951110068866077
 25 -0.24109934492938864
 26 -0.012653924649042449
 27 0.025371969819365091
 28 -1.1433850317711886e-10
 29 0.039150237508621857
 30 0.15921914946430887
 31 -0.20418466440343849
 32 -0.067480652832786647
 33 -0.18622947182844363
 34 -0.18622947182842198
 35 -0.067480652832801372
Sym= A
Ene= -0.64287719135986154
Spin= Alpha
Occup= 2
 1 -6.4114201659352983e-15
 2 1.9391598474104365e-14
 3 -4.5863723872686923e-14
 4 0.13945035175765927
 5 -8.4028674133468076e-15
 6 -0.041836668123670005
 7 0.13263394576277923
 8 6.7920502349248628e-12
 9 -0.07561150436402761
 10 -0.10730036220552919
 11 0.049243325458253932
 12 -0.19562285264121454
 13 -1.5956163332688201e-11
 14 -0.27571899760681989
 15 -0.046587693168052502
 16 -7.4239404710514394e-16
 17 4.3082838190900497e-15
 18 -4.6477925974819532e-13
 19 0.24199982141696205
 20 7.5341031214876877e-15
 21 -0.049243325458252857
 22 0.19562285264121168
 23 1.5558735386856946e-11
 24 -0.27571899760682611
 25 0.046587693168068302
 26 0.04183666812367013
 27 -0.13263394576277962
 28 -6.9504213691146238e-12
 29 -0.075611504364031246
 30 0.10730036220551727
 31 1.4647919215251753e-14
 32 0.046364143053408483
 33 -0.29830418480616422
 34 0.29830418480617538
 35 -0.046364143053404028
Sym= A
Ene= -0.64190904888351696
Spin= Alpha
Occup= 2
 1 -1.3218485863050604e-10
 2 4.0379114435372176e-10
 3 -0.056455795466157054
 4 -1.1261997856820246e-13
 5 -2.3652278828330751e-10
 6 3.2491571810808703e-11
 7 -8.2461459808201471e-11
 8 -0.097995342385202883
 9 8.1709857662284118e-11
 10 -2.3029863090391068e-10
 11 -2.2334143564049871e-11
 12 8.7428729276537942e-11
 13 -0.24603389661972455
 14 1.8055482139203664e-10
 15 3.6439769800681721e-10
 16 -2.4601124724373391e-11
 17 1.3841019399155445e-10
 18 -0.5759547934893462
 19 -1.9526673109418883e-13
 20 1.900854309126736e-10
 21 -2.2254786577162847e-11
 22 8.7113807086385978e-11
 23 -0.24603389661973002
 24 -1.8011006822018537e-10
 25 3.6432300533276291e-10
 26 3.2424718219333963e-11
 27 -8.2249813150301149e-11
 28 -0.09799534238520681
 29 -8.1587101335274784e-11
 30 -2.3047270059101216e-10
 31 3.6179632941324555e-10
 32 9.3875115921192617e-11
 33 2.9392092562903574e-10
 34 2.9343972415533422e-10
 35 9.3949381328268792e-11
Sym= A
Ene= -0.59253761036373109
Spin= Alpha
Occup= 2
 1 0.063419462940227392
 2 -0.18766119008725268
 3 -5.081393911376223e-11
 4 -9.8697820954171753e-15
 5 -0.073399722586558608
 6 -0.045748622725875043
 7 0.15546971813199501
 8 -3.0443738908037138e-12
 9 0.25954779012491902
 10 -0.10453588153572367
 11 0.049179167076020908
 12 -0.17203576614388785
 13 -2.4631491396329885e-11
 14 -0.11148855569198829
 15 -0.017639089648588485
 16 -0.05183842605765402
 17 0.2158550271267673
 18 1.4777622873300174e-11
 19 -1.9258095723048219e-14
 20 0.025097235712831151
 21 0.049179167076023503
 22 -0.17203576614389171
 23 -2.463954321816476e-11
 24 0.11148855569197877
 25 -0.017639089648508854
 26 -0.045748622725862755
 27 0.15546971813194754
 28 -3.0332602597020338e-12
 29 -0.25954779012494411
 30 -0.10453588153579992
 31 -0.023441831178823057
 32 0.32557285204492137
 33 -0.18405828588440898
 34 -0.18405828588438602
 35 0.32557285204499659
Sym= A
Ene= -0.52800757120473973
Spin= Alpha
Occup= 2
 1 -6.3884796378609643e-15
 2 2.0693625508202032e-14
 3 1.6440413833147568e-16
 4 -0.081269797947214992
 5 1.1498024146340667e-14
 6 -0.010538451169954563
 7 0.022861457447065463
 8 -8.0328451355966837e-11
 9 -0.1170973915983072
 10 0.28526043548565388
 11 -0.022149949167788355
 12 0.092292851831293682
 13 -1.2502180152483087e-10
 14 -0.038150769134804176
 15 -0.30350051130719374
 16 7.2144733684046937e-15
 17 -3.1037400634511908e-14
 18 8.2363926897561751e-16
 19 -0.12678128739667721
 20 -1.2404200774443064e-14
 21 0.022149949167773967
 22 -0.092292851831243708
 23 1.2502133538893776e-10
 24 -0.038150769134830266
 25 0.30350051130718958
 26 0.010538451169967126
 27 -0.022861457447109938
 28 8.0328401901023488e-11
 29 -0.1170973915982431
 30 -0.28526043548562252
 31 -1.2515622906267833e-15
 32 -0.22786734293499844
 33 -0.14513597242791113
 34 0.14513597242795584
 35 0.2278673429349089
Sym= A
Ene= -0.44821709328687231
Spin= Alpha
Occup= 2
 1 4.5934307658280744e-15
 2 -1.6467906111054046e-14
 3 5.7028160388829649e-17
 4 -0.35133648293666803
 5 5.3977839136801145e-14
 6 0.027096400154665707
 7 -0.099083613295036232
 8 -4.5337919714475008e-11
 9 0.35385692957469983
 10 0.10409764079764883
 11 0.0042912162453859343
 12 -0.034320017097154834
 13 -7.2653218484879406e-11
 14 -0.081224993980150428
 15 -0.069889112595603917
 16 -7.0488266476289813e-16
 17 4.1937174764214882e-15
 18 6.6565793771546674e-16
 19 0.10059779577374042
 20 2.2063008706048336e-14
 21 -0.0042912162453800249
 22 0.034320017097134912
 23 7.265346267255442e-11
 24 -0.081224993980157853
 25 0.069889112595646147
 26 -0.027096400154676223
 27 0.099083613295075812
 28 4.5337548817169344e-11
 29 0.35385692957472409
 30 -0.10409764079768688
 31 -7.065062226969734e-14
 32 0.26610996529778963
 33 -0.15173872484277645
 34 0.15173872484279297
 35 -0.26610996529776332
Sym= A
Ene= -0.44291862603303045
Spin= Alpha
Occup= 2
 1 -0.014162726652514833
 2 0.063303005296353826
 3 1.2157407636699809e-10
 4 -5.0433410718275472e-14
 5 -0.4150519379285289
 6 0.039525094453655471
 7 -0.1509012736363326
 8 1.0099039270766356e-10
 9 0.10697056837211404
 10 0.14362284633101058
 11 -0.030023514273391699
 12 0.10275896666530397
 13 1.2090318928650033e-10
 14 -0.015993029258976419
 15 -0.15192404173411553
 16 0.0097261226617473742
 17 -0.052933219276789692
 18 -5.6509598368795996e-11
 19 1.4003339646960047e-14
 20 -0.17251450487496051
 21 -0.030023514273392879
 22 0.10275896666531711
 23 1.2089943385237883e-10
 24 0.015993029258957576
 25 -0.15192404173409826
 26 0.039525094453648345
 27 -0.15090127363631195
 28 1.0099732298045019e-10
 29 -0.10697056837201013
 30 0.14362284633098529
 31 0.50486376750696593
 32 -0.056543927745166166
 33 -0.043504711876243059
 34 -0.043504711876215213
 35 -0.056543927745225729
Sym= A
Ene= -0.33665065091488044
Spin= Alpha
Occup= 2
 1 7.0847878279089625e-12
 2 -2.8572597255887616e-11
 3 0.45154059929109902
 4 -1.3364227816149573e-16
 5 1.0609603679876981e-10
 6 2.5986233587425228e-12
 7 4.6658538383725129e-12
 8 0.3663367317828895
 9 -2.7698617760593727e-12
 10 -1.1892433726463188e-10
 11 1.3476951565666144e-11
 12 -6.2514650783743234e-11
 13 0.073075155852198675
 14 -3.3646287123240788e-12
 15 1.2852530784272593e-10
 16 -1.7711887657191775e-12
 17 4.6427811629114153e-12
 18 -0.32594210854399652
 19 9.7056999070926579e-17
 20 -1.6316866789771839e-10
 21 1.3476910267120508e-11
 22 -6.2514510358642112e-11
 23 0.073075155853153481
 24 3.3639894949505707e-12
 25 1.2852545329766818e-10
 26 2.5985201611493702e-12
 27 4.6661772043266863e-12
 28 0.36633673178359738
 29 2.7702146490804559e-12
 30 -1.1892445664719482e-10
 31 -1.4070990760264603e-10
 32 7.2947314328516685e-11
 33 1.0070065918935644e-10
 34 1.0070061131946409e-10
 35 7.2947649416415087e-11
Sym= A
Ene= -0.33337522196085312
Spin= Alpha
Occup= 2
 1 -9.6892394648296801e-17
 2 4.6461859224954179e-16
 3 -4.8556612344566028e-13
 4 8.8052094320938674e-11
 5 4.5160845825236479e-16
 6 7.9009170275238562e-13
 7 8.9790141616918608e-12
 8 -0.33182471568908251
 9 -1.363890861057718e-11
 10 -7.3672730681636324e-11
 11 3.92602420451703e-12
 12 -2.3188161606407543e-11
 13 -0.4505806203446196
 14 5.414241243182718e-11
 15 1.139527953932864e-10
 16 -3.9689691110165423e-17
 17 1.2888805984848998e-16
 18 3.4114692860418043e-13
 19 4.2453601668348245e-11
 20 3.5613171554245008e-15
 21 -3.9259315810340541e-12
 22 2.3188656014596777e-11
 23 0.45058062034446372
 24 5.4141798350655773e-11
 25 -1.1395283646905845e-10
 26 -7.90471506435798e-13
 27 -8.9774407540735012e-12
 28 0.33182471568830868
 29 -1.3638139851169394e-11
 30 7.3675161142599142e-11
 31 -4.4291661462778444e-16
 32 5.6768820323357865e-12
 33 3.1289930859079244e-11
 34 -3.1292440272339202e-11
 35 -5.6781578896898913e-12
Sym= A
Ene= -0.015179393354975703
Spin= Alpha
Occup= 2
 1 3.2286745885283931e-11
 2 -1.9887485746475444e-10
 3 -0.55368369872475565
 4 2.5916434277637107e-16
 5 1.9889282226151665e-10
 6 4.1603835468880246e-10
 7 -1.7903298026438852e-09
 8 0.13905558390257486
 9 -8.4982496305994665e-11
 10 -2.1736128429754561e-09
 11 -3.5268622816974978e-11
 12 -1.0303917578325216e-10
 13 0.4441883475052974
 14 -5.852136076016977e-10
 15 8.9406087930233902e-10
 16 1.6324051722992907e-10
 17 -1.1561668527163211e-09
 18 -0.47341340436001628
 19 2.12236971172641e-16
 20 -6.3480530830635882e-09
 21 -3.5268756128429306e-11
 22 -1.0303878394178028e-10
 23 0.44418834750526892
 24 5.8521314137886843e-10
 25 8.9406204241963202e-10
 26 4.1603841398887491e-10
 27 -1.7903297402734666e-09
 28 0.13905558390259876
 29 8.4983196379765078e-11
 30 -2.1736130692052913e-09
 31 -6.6815458323825064e-10
 32 1.3732891840994302e-09
 33 2.5472075214864895e-09
 34 2.5472067508150452e-09
 35 1.3732898708111118e-09
Sym= A
Ene= 0.05726202958773681
Spin= Alpha
Occup= 0
 1 -0.0040422798784506709
 2 0.024121904296010705
 3 -5.1202803141512906e-09
 4 -2.9996521688113504e-15
 5 -0.018207123562090748
 6 -0.046319388730189072
 7 0.20094243653316557
 8 1.5395408437020548e-09
 9 0.013069924197954771
 10 0.23269285879475729
 11 0.0034366391753861232
 12 0.014016378345311671
 13 3.9327413664710113e-09
 14 0.071105262887444176
 15 -0.09058025796075847
 16 -0.017266908140262875
 17 0.12734485784459273
 18 -4.4443992364254043e-09
 19 2.1068267345430704e-16
 20 0.69110254644736635
 21 0.0034366391753873874
 22 0.014016378345304475
 23 3.9327384293201171e-09
 24 -0.071105262887442663
 25 -0.090580257960748603
 26 -0.046319388730189641
 27 0.20094243653317026
 28 1.5395358522985421e-09
 29 -0.01306992419795453
 30 0.23269285879475965
 31 0.068589035312762101
 32 -0.15480378525234439
 33 -0.28149108615400514
 34 -0.28149108615400131
 35 -0.1548037852523442
Sym= A
Ene= 0.2502607427675933
Spin= Alpha
Occup= 0
 1 -4.5011796406323434e-15
 2 2.7416335413403316e-14
 3 3.9384885146548806e-15
 4 1.3321917299666371e-11
 5 -8.7438358841362933e-17
 6 3.757430236124743e-12
 7 -3.9128026214794458e-11
 8 -0.52978799527442499
 9 -6.8548348075761393e-12
 10 -9.5139793951788257e-12
 11 -8.8508176799149195e-13
 12 1.3626360897928469e-11
 13 0.43702461805358073
 14 -3.5456373177437634e-11
 15 -4.3107287751239724e-11
 16 1.522286135457138e-15
 17 -1.2019929893696645e-14
 18 1.840527616494634e-14
 19 -2.0511906173272221e-11
 20 -6.6934810644993933e-16
 21 8.8483166199563624e-13
 22 -1.3628384684547244e-11
 23 -0.43702461805361859
 24 -3.5448292830910286e-11
 25 4.3130965630574947e-11
 26 -3.7579177300016874e-12
 27 3.9133785296820139e-11
 28 0.52978799527443288
 29 -6.8674702564302652e-12
 30 9.5358066965513722e-12
 31 -1.6389135967628308e-14
 32 3.4140688460045824e-11
 33 2.797254421156846e-11
 34 -2.7972659469185072e-11
 35 -3.4155091066239607e-11
Sym= A
Ene= 0.46948915149302767
Spin= Alpha
Occup= 0
 1 8.8116038527581319e-12
 2 -5.6443202361984926e-11
 3 -0.53552592598128024
 4 7.2521190722156716e-16
 5 -4.2253987294257629e-11
 6 2.1372305274978031e-11
 7 -1.0867436356172891e-10
 8 0.49614460962095985
 9 -4.0482887971746604e-11
 10 -1.0880174520559801e-10
 11 -2.2976343068254597e-12
 12 -3.6414178880251535e-12
 13 -0.40855189158050048
 14 -2.2401886393929346e-11
 15 -7.7186007941912511e-11
 16 8.3867753315164865e-13
 17 1.5354833000873763e-12
 18 0.29469909124858096
 19 1.3402948564408752e-16
 20 -2.0727708386047374e-10
 21 -2.2977439274517477e-12
 22 -3.641310196766421e-12
 23 -0.40855189158048932
 24 2.2401322249784969e-11
 25 -7.7184817518535428e-11
 26 2.137168650034794e-11
 27 -1.0867119870624336e-10
 28 0.49614460962093876
 29 4.0482526519184451e-11
 30 -1.0880198007007766e-10
 31 -1.7516636359852319e-11
 32 4.3393955726344142e-11
 33 1.4857306718101238e-10
 34 1.4857139083596126e-10
 35 4.3392140914703274e-11
Sym= A
Ene= 0.61652327597454926
Spin= Alpha
Occup= 0
 1 -0.012363462156694266
 2 0.076438274904868195
 3 1.1822348821969382e-11
 4 2.065675918966726e-14
 5 -0.22633177202858248
 6 -0.029358235597317556
 7 0.19983679885607636
 8 1.3909751608302307e-11
 9 0.13721476226535678
 10 -0.26201289316104109
 11 -0.13206968454118537
 12 0.84013077370734179
 13 -5.4058377675214459e-11
 14 0.022789774428548914
 15 0.24903047647335519
 16 0.086700111723446216
 17 -0.67823632332696882
 18 6.7873307315200064e-11
 19 -1.2331497853976632e-14
 20 -0.10420352919118209
 21 -0.13206968454116447
 22 0.84013077370720146
 23 -5.4052795607852498e-11
 24 -0.022789774428463385
 25 0.24903047647329093
 26 -0.029358235597319253
 27 0.19983679885608377
 28 1.390267863534947e-11
 29 -0.13721476226532558
 30 -0.26201289316103143
 31 -0.3439379524844387
 32 -0.37014793527002005
 33 -0.63054874702551034
 34 -0.63054874702532437
 35 -0.37014793526998307
Sym= A
Ene= 0.64402880411270147
Spin= Alpha
Occup= 0
 1 2.0795754492192761e-14
 2 -1.4251069761569123e-13
 3 -5.9656934409694326e-16
 4 0.19192643392693226
 5 2.5068890490165975e-13
 6 -0.021291336095736541
 7 0.15086163158750057
 8 -1.2810493374753919e-11
 9 0.3395308108956735
 10 -0.10998144830844786
 11 -0.075783705864474124
 12 0.4884104270721969
 13 3.9828364654207529e-11
 14 0.35976029639393553
 15 0.23482652305074347
 16 6.4169507794048934e-14
 17 -5.0427995940906448e-13
 18 5.3291198793871518e-16
 19 -0.01195718233400116
 20 5.4834628253881861e-14
 21 0.075783705864393147
 22 -0.48841042707167148
 23 -3.9829284240987375e-11
 24 0.35976029639415025
 25 -0.23482652305034352
 26 0.021291336095832787
 27 -0.15086163158811056
 28 1.281167237903708e-11
 29 0.33953081089610515
 30 0.10998144830890097
 31 3.8747725800501439e-13
 32 -0.47776596147690248
 33 -0.72661430121689674
 34 0.72661430121655257
 35 0.47776596147790451
Sym= A
Ene= 0.65542919211600115
Spin= Alpha
Occup= 0
 1 -0.018665921382301706
 2 0.13108736503586038
 3 4.9046516558732043e-11
 4 1.5954401022926074e-13
 5 -0.32267813742603041
 6 -0.062698077196650437
 7 0.39509401158825747
 8 -3.3250916091310517e-11
 9 0.24968339213715063
 10 -0.28374568584138232
 11 0.071217261017324229
 12 -0.45893358600440576
 13 1.1842041152333506e-11
 14 0.14172792495305256
 15 -0.30911638401065777
 16 -0.097662067081816364
 17 0.76758667079975396
 18 -1.5471804526796285e-12
 19 -1.5630350505038305e-14
 20 -0.053839947466911189
 21 0.071217261017445979
 22 -0.45893358600518891
 23 1.1840103998181521e-11
 24 -0.14172792495248643
 25 -0.30911638401102115
 26 -0.062698077196632021
 27 0.3950940115881193
 28 -3.324860188946409e-11
 29 -0.24968339213669372
 30 -0.28374568584124815
 31 -0.46723328802365066
 32 -0.6178799371367758
 33 0.31729857831589431
 34 0.31729857831703456
 35 -0.61787993713616263
Sym= A
Ene= 0.75491158877025633
Spin= Alpha
Occup= 0
 1 1.4102233536889477e-14
 2 -9.4223453043833963e-14
 3 -3.1515649177813889e-16
 4 -0.23100000050417716
 5 -1.1498423666780423e-14
 6 -0.13324633152848891
 7 0.87124042343796027
 8 -1.4376488927323162e-11
 9 0.31701366724167962
 10 0.057589314421909246
 11 0.10527088536361333
 12 -0.70267263058412355
 13 1.21194618465611e-11
 14 -0.16848005568792707
 15 0.14950332571729405
 16 -2.9897290514551655e-15
 17 3.2549859769896182e-14
 18 2.7814853990577713e-16
 19 0.17507551632241536
 20 -2.3611524874082954e-15
 21 -0.10527088536361895
 22 0.70267263058415708
 23 -1.212075567320321e-11
 24 -0.1684800556879785
 25 -0.14950332571733929
 26 0.13324633152847262
 27 -0.87124042343785824
 28 1.4377257929322991e-11
 29 0.31701366724170127
 30 -0.057589314422023911
 31 1.5613020523240923e-14
 32 -0.66491164082224474
 33 0.39400516749251474
 34 -0.39400516749253006
 35 0.66491164082212717
Sym= A
Ene= 0.75991754154264457
Spin= Alpha
Occup= 0
 1 -0.19049302437331564
 2 1.1796488762230228
 3 2.0182244630394895e-11
 4 -5.3011659041500367e-14
 5 -0.053893681407492816
 6 0.13532591159013532
 7 -0.86863272655319523
 8 -3.2784629212105509e-12
 9 0.073769389698566598
 10 0.036440332137903722
 11 -0.033890753511675309
 12 0.2002350921607865
 13 1.177776737135057e-11
 14 0.30845464679546825
 15 -0.27106602508516586
 16 -0.049216839668030685
 17 0.45075045192587787
 18 -1.2958258895588505e-11
 19 -1.1637502770280345e-14
 20 -0.0094030630262910784
 21 -0.033890753511678945
 22 0.20023509216080376
 23 1.1781025984087505e-11
 24 -0.3084546467954733
 25 -0.27106602508522609
 26 0.1353259115901555
 27 -0.86863272655333257
 28 -3.2823308425869575e-12
 29 -0.073769389698586138
 30 0.036440332137908038
 31 -0.68215408307805525
 32 0.3666925872877202
 33 -0.20668224860457529