[Molden Format]
[Title]
generated by GANSU
[Atoms] (Angs)
Se 1 34 0 0 0
O 2 8 0 1.73 0
O 3 8 1.499 -0.865 0
O 4 8 -1.499 -0.865 0
[GTO]
1 0
 s 3 1.00
    451.849 0.535328
    122.288 0.444635
    2480.63 0.154329
 s 3 1.00
    206.158 -0.0999672
    47.9067 0.399513
    15.5807 0.700115
 p 3 1.00
    206.158 0.155916
    47.9067 0.607684
    15.5807 0.391957
 s 3 1.00
    17.64 -0.227764
    5.38076 0.217544
    2.07606 0.916677
 p 3 1.00
    5.38076 0.577766
    17.64 0.00495151
    2.07606 0.484646
 s 3 1.00
    0.197965 1.13103
    0.44828 0.0196064
    1.21464 -0.308844
 p 3 1.00
    0.197965 0.549895
    0.44828 0.571523
    1.21464 -0.121547
 d 3 1.00
    17.64 0.219768
    5.38076 0.655547
    2.07606 0.286573

2 0
 s 3 1.00
    23.8089 0.535328
    6.44361 0.444635
    130.709 0.154329
 s 3 1.00
    0.380389 0.700115
    1.1696 0.399513
    5.03315 -0.0999672
 p 3 1.00
    1.1696 0.607684
    5.03315 0.155916
    0.380389 0.391957

3 0
 s 3 1.00
    130.709 0.154329
    23.8089 0.535328
    6.44361 0.444635
 s 3 1.00
    0.380389 0.700115
    1.1696 0.399513
    5.03315 -0.0999672
 p 3 1.00
    5.03315 0.155916
    1.1696 0.607684
    0.380389 0.391957

4 0
 s 3 1.00
    6.44361 0.444635
    23.8089 0.535328
    130.709 0.154329
 s 3 1.00
    0.380389 0.700115
    5.03315 -0.0999672
    1.1696 0.399513
 p 3 1.00
    0.380389 0.391957
    1.1696 0.607684
    5.03315 0.155916

[MO]
Sym= A
Ene= -456.245
Spin= Alpha
Occup= 2
 1 -0.99417644741535349
 2 -0.01494969657911791
 3 -1.212822129752435e-17
 4 -3.8645120299127892e-09
 5 -3.2916619028228128e-17
 6 0.022610259921404398
 7 1.3194617900972119e-16
 8 4.0276983209004035e-09
 9 -3.8046840287813632e-17
 10 -8.0012449643065788e-05
 11 -4.0615192295106076e-16
 12 -3.0413451173532994e-08
 13 4.3041698454997888e-18
 14 -0.009336741616658692
 15 -0.009336743398837867
 16 -0.0093359508112314821
 17 -2.5356799506621431e-19
 18 3.4727773809946339e-20
 19 -4.3225900470661205e-19
 20 -3.4057339393123636e-06
 21 2.0857183496358211e-05
 22 4.067222806621688e-17
 23 -1.2818487154342909e-05
 24 -8.7417828160544265e-20
 25 -3.4015245552097942e-06
 26 2.0822677609371921e-05
 27 -1.1089568436453623e-05
 28 6.401368728997922e-06
 29 -6.7965376225547294e-20
 30 -3.4015245550258131e-06
 31 2.0822677608920249e-05
 32 1.1089568436314253e-05
 33 6.4013687288724874e-06
 34 -6.6205488650775717e-20
Sym= A
Ene= -59.454400728481048
Spin= Alpha
Occup= 2
 1 0.42303420821874049
 2 -1.0616796376287212
 3 -1.5899354911074026e-14
 4 -7.1785774081294903e-07
 5 -4.8770309543229001e-16
 6 1.6809970314112157
 7 -2.0799476614494998e-15
 8 -4.6134853323729401e-07
 9 -3.9573309524649296e-16
 10 0.033353600038078163
 11 2.244218821887503e-15
 12 4.8147230431196549e-06
 13 1.0395997729564952e-16
 14 -0.78706089430704762
 15 -0.78706075505907835
 16 -0.78723366860645794
 17 1.1077314778272065e-16
 18 -1.19269783085767e-18
 19 -4.4259225765670892e-17
 20 0.00058748953756151241
 21 -0.0052464066552833921
 22 -1.2673007318440352e-16
 23 0.0023302974157180952
 24 -4.6189052811522938e-18
 25 0.0005874333926805781
 26 -0.0052408752206395187
 27 0.002018473827816226
 28 -0.0011650830987091879
 29 -7.1788056655026515e-18
 30 0.00058743339267976202
 31 -0.0052408752206371673
 32 -0.0020184738278156054
 33 -0.0011650830987084649
 34 -7.10547558949743e-18
Sym= A
Ene= -53.890839196443324
Spin= Alpha
Occup= 2
 1 1.5945994182412473e-15
 2 -1.8624749594290978e-15
 3 2.6526631023700565e-12
 4 5.8669126407126887e-12
 5 0.29262696312018149
 6 -6.5550072847542017e-14
 7 9.239059127280654e-14
 8 2.0439188099799509e-13
 9 0.010153883327567901
 10 -1.1053033983861554e-16
 11 -1.6234536473609518e-14
 12 -3.6365674767029151e-14
 13 -0.0014489539885093607
 14 2.9290832853591855e-14
 15 2.9026093972412764e-14
 16 2.9401396912583761e-14
 17 -8.5663204685936873e-16
 18 4.2957696068021623e-15
 19 1.3913355237248903e-07
 20 -1.1132758487169917e-15
 21 9.6379622030384458e-15
 22 9.4528776758153097e-16
 23 -4.3741649008853086e-15
 24 8.8225073073364908e-05
 25 -5.0833306241972991e-16
 26 -1.581519729260957e-15
 27 2.1035421852064558e-15
 28 1.8225805926571269e-15
 29 8.8126593468451292e-05
 30 2.0242906832861684e-15
 31 -8.9653815041025834e-15
 32 -4.6306717232331074e-15
 33 -9.2092323921381885e-16
 34 8.8126593468396702e-05
Sym= A
Ene= -53.890210030099624
Spin= Alpha
Occup= 2
 1 1.1763987447793829e-06
 2 -2.9666785151755776e-06
 3 -1.7091586853164633e-07
 4 0.29262132891830622
 5 -5.8670910574766052e-12
 6 3.9265989682408016e-06
 7 -5.949727785733039e-09
 8 0.010186425730004047
 9 -2.0348427286855355e-13
 10 -3.2326506624755999e-07
 11 1.0534294133641148e-09
 12 -0.001803661913357383
 13 2.9051032069397991e-14
 14 7.2383354565308793e-06
 15 -1.0744955916806173e-05
 16 -1.8500320766830135e-06
 17 -6.216999373226891e-12
 18 6.9052053527795618e-19
 19 5.1667647259990972e-18
 20 -5.4300754828885545e-05
 21 0.00048772793210515042
 22 -6.6212078849793217e-11
 23 -0.00023629485432165556
 24 -1.7675149061913868e-15
 25 2.713159041830352e-05
 26 -0.00024349938356891347
 27 0.00015127790500774066
 28 2.5942034131797215e-05
 29 -1.7686198584623629e-15
 30 2.7131535478837021e-05
 31 -0.0002434988905307467
 32 -0.00015127773098477952
 33 2.594221087855923e-05
 34 -1.7675978307624263e-15
Sym= A
Ene= -53.890208896741633
Spin= Alpha
Occup= 2
 1 7.0373369103880779e-13
 2 -1.79607155846998e-12
 3 0.29262133451784189
 4 1.7091586520827892e-07
 5 -2.6527025433814315e-12
 6 3.0550651033523956e-12
 7 0.010186399657915055
 8 5.9497432391365845e-09
 9 -9.2007106223487647e-14
 10 -1.7985009396553557e-13
 11 -0.0018035535551531787
 12 -1.0534922833889367e-09
 13 1.2757170660584892e-14
 14 3.8919413239946832e-12
 15 -6.6203846651060656e-12
 16 -1.4234776969415754e-12
 17 1.0651395915378153e-05
 18 3.9669499049348085e-16
 19 3.6318700356390361e-16
 20 -3.1716450069480639e-11
 21 2.8487321678096233e-10
 22 0.00011336025756651197
 23 -1.3801585149970376e-10
 24 -6.6817027488881451e-16
 25 -4.703035169734013e-05
 26 0.00042205963853769697
 27 -0.000148970255268492
 28 0.00015130221823360864
 29 -7.7633416174804721e-16
 30 4.7030383392512415e-05
 31 -0.00042205992298865243
 32 -0.00014897043198755633
 33 -0.00015130218792948572
 34 -8.5732276257785534e-16
Sym= A
Ene= -20.212012172063368
Spin= Alpha
Occup= 2
 1 8.7445509048361976e-05
 2 -0.00016715107094171999
 3 1.1341565342414634e-12
 4 -5.6513406438775111e-05
 5 -4.1919881992983826e-17
 6 -0.0025472954503913013
 7 -6.5716621238467983e-12
 8 0.00032746481822530313
 9 2.4251397587492696e-16
 10 -0.0029790190550836437
 11 9.190676607578589e-11
 12 -0.0045842809242393635
 13 -2.0380740437652894e-16
 14 0.0013252800403558268
 15 0.0011061239433665842
 16 0.001310698427430318
 17 -2.5319853306247467e-12
 18 1.9394539583002387e-18
 19 -1.0864007348373317e-17
 20 0.9927983017590355
 21 0.022719642075459172
 22 -6.1902102581078065e-12
 23 -0.0021405689925019259
 24 -1.4409025667520189e-16
 25 -0.042410396744215456
 26 -0.0010149183999686034
 27 0.00022945675722140372
 28 0.00017615895617367609
 29 2.6145858810524216e-16
 30 -0.042410372760034322
 31 -0.0010149178501800585
 32 -0.00022945671519295828
 33 0.00017615898755657386
 34 6.131883693894762e-17
Sym= A
Ene= -20.211832745518958
Spin= Alpha
Occup= 2
 1 3.9712852140085692e-10
 2 -7.5863557973143476e-10
 3 -6.6514224782183163e-05
 4 9.7317455035047453e-11
 5 2.0425439743941419e-16
 6 -1.1572806825491973e-08
 7 0.00038541739828319471
 8 -5.6390671211560551e-10
 9 -1.4905566313174258e-16
 10 -1.350643531158774e-08
 11 -0.0053900918041927806
 12 7.885589588780339e-09
 13 4.7618940330039875e-16
 14 5.3354658041902843e-09
 15 5.7123629414158025e-09
 16 5.9540536024650582e-09
 17 0.00014848586231934027
 18 4.6894822614685859e-17
 19 -9.2617605076907816e-16
 20 1.8521915815112257e-07
 21 4.0517256212793684e-09
 22 0.00036330061581362806
 23 -3.1796842476909688e-10
 24 1.90235496877334e-16
 25 0.70329590289049493
 26 0.016121926469878176
 27 -0.0012324196617653548
 28 0.00092024294189693376
 29 9.00831711906419e-17
 30 -0.70329196498803337
 31 -0.016121836597746058
 32 -0.0012324119451361569
 33 -0.00092023955246347481
 34 -3.7411462995518213e-16
Sym= A
Ene= -20.211814832267955
Spin= Alpha
Occup= 2
 1 -0.00014101029999762782
 2 0.00026937183999859631
 3 -1.8662178858613953e-10
 4 -3.5028605346556414e-05
 5 1.0951543703854927e-16
 6 0.0041092119833677039
 7 1.0813823357812611e-09
 8 0.00020297358860751072
 9 -4.2795778846878342e-16
 10 0.0047957636401226422
 11 -1.5123218908285892e-08
 12 -0.0028383858710097818
 13 -8.4996026099001596e-17
 14 -0.001893572875040351
 15 -0.0020292352863250842
 16 -0.0021141338837446892
 17 4.1661308243839314e-10
 18 1.3512042768118266e-18
 19 -2.6460251132578192e-18
 20 -0.059980846063706746
 21 -0.0013060104504919313
 22 1.0193280485284255e-09
 23 0.00010031923024989096
 24 -1.7237642982297067e-16
 25 -0.70201410883079429
 26 -0.016021915124855082
 27 0.001376544664457209
 28 -0.00060294540991020682
 29 2.1110340176013746e-16
 30 -0.70201805535012463
 31 -0.016022005592613801
 32 -0.0013765515801482495
 33 -0.0006029505738314125
 34 9.0353573222450405e-17
Sym= A
Ene= -8.5434924252131328
Spin= Alpha
Occup= 2
 1 -0.16564789957642465
 2 0.50735630436689971
 3 9.8665920381562894e-14
 4 2.6506597471052096e-06
 5 -2.2778677329573892e-16
 6 -1.8284109645987556
 7 -4.5531052862624258e-13
 8 -1.2121232816872888e-05
 9 1.0539400371813279e-15
 10 -0.037294863609626049
 11 -7.5696656463437283e-14
 12 -6.227517925431746e-06
 13 -4.8386912789170681e-17
 14 0.3404367366338884
 15 0.34043389463487567
 16 0.34072283037401191
 17 2.1641126916606966e-14
 18 -7.8257131758089538e-18
 19 -1.5216402674788685e-15
 20 -0.0005240422966173037
 21 0.005031726927993814
 22 3.0927210038755128e-15
 23 -0.0019050857938609268
 24 -3.5272519887300182e-17
 25 -0.00052436017954652942
 26 0.0050266567432847341
 27 -0.0016506690069171559
 28 0.00095298978970534789
 29 2.1158120765853812e-17
 30 -0.00052436017954584973
 31 0.0050266567432645541
 32 0.0016506690069129574
 33 0.00095298978969909139
 34 2.4136764765564038e-17
Sym= A
Ene= -6.3483539580058519
Spin= Alpha
Occup= 2
 1 3.8912078254740556e-06
 2 -1.1893087681946611e-05
 3 -2.0672427455952112e-09
 4 0.11919770931307035
 5 4.0092431173815135e-13
 6 3.9396123748618923e-05
 7 9.6310054971298525e-09
 8 -0.55532598226933916
 9 -1.868204380298338e-12
 10 -7.8990759646293132e-06
 11 9.075623069900686e-10
 12 -0.052332232607200366
 13 -1.5081342661083766e-13
 14 0.00071378220590626474
 15 -0.00073269020487707617
 16 -1.9869082126359695e-07
 17 -1.4451668305059824e-11
 18 -3.7144892663968016e-17
 19 -1.4794007326469867e-16
 20 -0.00098360041797783426
 21 0.011116980261973634
 22 -4.3749156061050196e-11
 23 -0.0041162510677982839
 24 7.0336936266605966e-15
 25 0.00049215826972258013
 26 -0.0055516652577135353
 27 0.0028736888625007302
 28 0.00086177159747833536
 29 7.0429067159332285e-15
 30 0.00049215824012991359
 31 -0.0055516649239393378
 32 -0.0028736887771457051
 33 0.00086177169717106372
 34 7.0397465904479624e-15
Sym= A
Ene= -6.3483428738604495
Spin= Alpha
Occup= 2
 1 2.0739311201846973e-13
 2 -6.3250715597912074e-13
 3 0.11919772018141794
 4 2.067243015891189e-09
 5 -1.8774350488814004e-13
 6 2.1355470976865524e-12
 7 -0.55532610902161728
 8 -9.6310049162854958e-09
 9 8.7491980627369507e-13
 10 -2.0817618449796917e-13
 11 -0.052330168875422127
 12 -9.075953203481542e-10
 13 7.0013166440140178e-14
 14 1.1794270932195219e-11
 15 -1.2779751384318543e-11
 16 -7.6396487977282708e-14
 17 0.00081622563576688777
 18 2.1143095536393335e-16
 19 -2.7412670898454793e-15
 20 -1.7060245994876957e-11
 21 1.9281399851423169e-10
 22 0.0025224775161049907
 23 -7.1393552804648103e-11
 24 -2.8205952643725162e-15
 25 -0.0008532974323290682
 26 0.0096231770064313746
 27 -0.0024611705170621352
 28 0.0028744734057184252
 29 -2.8096127326995891e-15
 30 0.0008532974494047423
 31 -0.0096231771989983249
 32 -0.0024611706167545007
 33 -0.0028744733758365045
 34 -3.8566330946281625e-15
Sym= A
Ene= -6.3471972813285662
Spin= Alpha
Occup= 2
 1 -6.6674996436464338e-16
 2 8.2849780159202717e-16
 3 1.8742614535017051e-13
 4 -4.0050486548105905e-13
 5 0.1193341830204375
 6 2.7976690027439628e-14
 7 -8.73190030586e-13
 8 1.8659988002500764e-12
 9 -0.55609583277251262
 10 1.1700338766139057e-16
 11 -8.2298513502739638e-14
 12 1.7457040699702779e-13
 13 -0.044707117145261918
 14 -1.5027865046389981e-14
 15 -1.132616032719641e-14
 16 -1.3301268170712682e-14
 17 1.3674023334781207e-15
 18 -2.8747126041770146e-13
 19 -9.0486847515641008e-06
 20 3.416996050134371e-15
 21 -3.7045251550877411e-14
 22 4.0682665544974404e-15
 23 1.3628359265786687e-14
 24 0.0020787703389287138
 25 -2.9195601134916996e-15
 26 3.3915418405164515e-14
 27 -1.3418369502888753e-14
 28 1.4695760937901239e-15
 29 0.0020768513706891081
 30 -5.3121950377350777e-17
 31 3.2166899020143278e-15
 32 5.76721215123237e-15
 33 -7.5368310218092853e-15
 34 0.0020768513706850514
Sym= A
Ene= -1.9644740819615911
Spin= Alpha
Occup= 2
 1 4.2057138409368952e-07
 2 -1.3221555616926215e-06
 3 -1.2872788528175808e-12
 4 -6.5045321153760661e-05
 5 4.7232379870858407e-16
 6 -4.7344312593111754e-05
 7 9.3268225978309672e-12
 8 0.00048193006332793387
 9 -2.5468059493458339e-15
 10 -0.0001465742011246782
 11 -2.9364373980407518e-10
 12 -0.015888649187537501
 13 1.4079503072618723e-14
 14 -0.85817400607504335
 15 0.86919854017566656
 16 -0.010971749198891113
 17 -1.8464535452445111e-08
 18 -1.689593829305878e-13
 19 3.3681422277639351e-12
 20 -0.010845588392115951
 21 0.044291055133102164
 22 -1.2783093118662543e-10
 23 -0.022465285521343289
 24 3.213019053568775e-14
 25 0.0053086551948016529
 26 -0.021683044583541145
 27 0.0065429234106779803
 28 -0.010659493629342699
 29 -7.3560563376748164e-15
 30 0.0053086555390280572
 31 -0.021683045989393097
 32 -0.0065429240924688437
 33 -0.010659493875155131
 34 -5.4427978932958739e-15
Sym= A
Ene= -1.9644643964546959
Spin= Alpha
Occup= 2
 1 1.0783033221155906e-14
 2 -3.5876631140477878e-14
 3 6.7192726888325453e-05
 4 -1.1607516022494672e-12
 5 4.6310159773441199e-18
 6 4.3524426262696669e-14
 7 -0.00049219428503620519
 8 8.7069767576042789e-12
 9 4.5304921443188824e-17
 10 -6.2906212660901378e-13
 11 0.015851115829782939
 12 -2.9398826659235898e-10
 13 -1.2696727852230639e-16
 14 -1.5988376540284162e-08
 15 1.5994406691566847e-08
 16 -6.0178302450350513e-12
 17 0.99736965047352599
 18 1.1876750325779959e-12
 19 1.2307358377951458e-12
 20 -1.9956271081991733e-10
 21 8.1503285056584521e-10
 22 0.0069069149014750041
 23 -4.1336242624362408e-10
 24 8.8325217472490723e-15
 25 0.0093066621128767759
 26 -0.038006670045017121
 27 0.018417530523338031
 28 -0.0066493060501885285
 29 3.4233624620380963e-15
 30 -0.0093066619131655353
 31 0.038006669229593684
 32 0.018417530276037476
 33 0.006649305652693541
 34 -1.2602262409577851e-14
Sym= A
Ene= -1.9636868662222509
Spin= Alpha
Occup= 2
 1 8.2026743399100149e-05
 2 -0.0002440829070224243
 3 4.3602851860881479e-14
 4 1.3365579962477499e-06
 5 -1.3625889098294306e-17
 6 -0.0032406954909223085
 7 -2.4970404990859215e-13
 8 -8.1553579203639562e-06
 9 9.2331453425451023e-17
 10 -0.011888424373418719
 11 3.3321372698092458e-12
 12 0.0001504610726165884
 13 -1.2609361148854736e-17
 14 0.50996551929561451
 15 0.49093494375624142
 16 -0.99686773860554123
 17 1.9742014954386653e-10
 18 -5.2162374010719027e-14
 19 -2.2699528502353701e-12
 20 -0.0061883361242947525
 21 0.024941663904225433
 22 1.3732763292811057e-12
 23 -0.012892509696324873
 24 -1.6669241573181952e-14
 25 -0.0063500781969124866
 26 0.025598984258797572
 27 -0.011422136707263721
 28 0.0066689180204443149
 29 7.6866967879363586e-15
 30 -0.0063500782001633567
 31 0.025598984272181186
 32 0.01142213671421893
 33 0.0066689180228719355
 34 8.5019693808149364e-15
Sym= A
Ene= -1.9622210264210869
Spin= Alpha
Occup= 2
 1 1.0445950174309927e-16
 2 -3.4358036282209278e-16
 3 2.1469856642232381e-16
 4 -2.3447005087074243e-16
 5 -9.7297775168222163e-07
 6 1.0345504941578375e-14
 7 -1.3986374337247263e-15
 8 1.7109708984422091e-15
 9 4.6691848009194128e-06
 10 2.493332455618538e-14
 11 2.7356570629476124e-14
 12 -5.3838245087364586e-14
 13 3.8822005217741428e-06
 14 -4.0491917970811941e-12
 15 1.8130592131190331e-12
 16 2.225639444031983e-12
 17 1.2280899746680573e-12
 18 5.737585125467326e-09
 19 -0.99987305493475132
 20 -2.2423380546647517e-14
 21 9.2461011601773144e-14
 22 1.1348442613365386e-14
 23 -4.6230466407673774e-14
 24 -0.0073950727090880165
 25 4.2452909241757997e-14
 26 -1.7424937586331148e-13
 27 6.6851842677731466e-14
 28 -5.4854793472284766e-14
 29 0.0036864291508045843
 30 2.2119864992157918e-14
 31 -8.7711458826624777e-14
 32 -2.9038045575091357e-14
 33 -4.6885616803861603e-14
 34 0.0036864290773580546
Sym= A
Ene= -1.9622107301710772
Spin= Alpha
Occup= 2
 1 -3.4641077020431934e-18
 2 9.1718867325208835e-18
 3 3.0416703780385534e-17
 4 1.2566453141791327e-17
 5 -4.0885176130211016e-14
 6 2.1045503573541433e-16
 7 -2.7649831138377194e-16
 8 -9.2545795546064865e-17
 9 1.9900400814396002e-13
 10 6.3620972008854253e-16
 11 1.6864207247492809e-14
 12 2.8681030482151206e-15
 13 -4.2005953062056102e-14
 14 1.1843871366494842e-13
 15 -1.725388532536717e-13
 16 5.3850762201418701e-14
 17 1.1847364514924116e-12
 18 -0.99987340337699604
 19 -5.7375866312851243e-09
 20 2.2251038919025727e-15
 21 -9.0827644305392338e-15
 22 8.1929672122517388e-15
 23 4.2291898697070269e-15
 24 -4.2435330957080109e-11
 25 1.0693676067947695e-14
 26 -4.3488171583391967e-14
 27 2.1393385196949368e-14
 28 -7.7194736436714968e-15
 29 -0.0063892640531153875
 30 -1.1884802932081134e-14
 31 4.8404831981090084e-14
 32 2.2313323629390508e-14
 33 1.0336513661229563e-14
 34 0.006389264095217383
Sym= A
Ene= -1.2724564149891533
Spin= Alpha
Occup= 2
 1 -0.017225904537875619
 2 0.053895826499826917
 3 2.121142926609303e-12
 4 2.653811614756452e-05
 5 1.353949935496531e-17
 6 -0.22098142038638502
 7 -1.1467025729061226e-11
 8 -0.00014351094510271412
 9 -5.4049771937621426e-17
 10 0.42349095179943508
 11 4.9834045743330942e-11
 12 0.00057743332401160999
 13 2.215739671271373e-16
 14 0.017599839587656679
 15 0.017259715437260473
 16 0.082947879400999278
 17 1.6386286904298903e-11
 18 -1.7325102851994016e-17
 19 -1.2821460026735538e-15
 20 -0.12213482240694902
 21 0.44147714200647453
 22 1.3884239535737384e-12
 23 -0.048009523238263727
 24 9.9034438279750768e-15
 25 -0.12135066454953196
 26 0.43859725341387645
 27 -0.041277222699667521
 28 0.023837931842342206
 29 -4.6610716048346661e-15
 30 -0.12135066445637009
 31 0.43859725306215031
 32 0.041277222677348589
 33 0.023837931827859336
 34 -4.2777065125563894e-15
Sym= A
Ene= -1.1996085782644634
Spin= Alpha
Occup= 2
 1 4.084737016890628e-05
 2 -0.00012887696693228271
 3 -6.206013538717413e-10
 4 0.0081810642098041567
 5 -6.6476011827972812e-16
 6 0.00050811530086089312
 7 3.3587703693931627e-09
 8 -0.044277025577117393
 9 3.6535647789338277e-15
 10 -0.0011048899247696579
 11 -1.4960229774095e-08
 12 0.197145619100136
 13 -2.5331391983013912e-14
 14 0.047875515937451485
 15 -0.047990173659299126
 16 -0.00015476644440460166
 17 -4.1931188673397808e-09
 18 8.60505655677691e-17
 19 -2.3843903840052171e-18
 20 -0.1993627511676174
 21 0.75021090203202556
 22 -3.7469782907225698e-10
 23 -0.057612196147733108
 24 6.7493486238812662e-16
 25 0.10018944067915717
 26 -0.37697954813910239
 27 0.027192018011806051
 28 -0.010758367664444159
 29 1.9050632403881942e-15
 30 0.10018941442142444
 31 -0.37697944932864996
 32 -0.027192011639684918
 33 -0.010758363554554954
 34 2.2213768864472126e-15
Sym= A
Ene= -1.1994103217697583
Spin= Alpha
Occup= 2
 1 -8.3050113209203645e-12
 2 2.6097069283471048e-11
 3 -0.0081774201929112646
 4 -6.2114147904120178e-10
 5 -5.8260213845386184e-17
 6 -1.048290959742343e-10
 7 0.044257355288304261
 8 3.3617135888867063e-09
 9 4.5999381751605664e-17
 10 2.1605243744508001e-10
 11 -0.19714808858451685
 12 -1.4969900383776023e-08
 13 -6.6815953829032738e-16
 14 -3.6264315322021383e-09
 15 3.6484576207251663e-09
 16 3.3639496134341433e-11
 17 -0.055223353338952716
 18 1.9944131895628656e-15
 19 -7.8644475095090933e-15
 20 1.5102124015170937e-08
 21 -5.6835878124502489e-08
 22 -0.0049531459735146447
 23 4.3593797855444073e-09
 24 -7.1498252161084556e-16
 25 0.1729508160176299
 26 -0.65082026554209094
 27 0.041977245007236055
 28 -0.027081521993231047
 29 -3.9047615257620464e-15
 30 -0.17295083128874977
 31 0.65082032298763814
 32 0.041977249162495997
 33 0.027081523639786078
 34 5.4414944112521242e-15
Sym= A
Ene= -0.72566713284430762
Spin= Alpha
Occup= 2
 1 -0.026713076241812492
 2 0.085148240102820294
 3 1.26252431301507e-12
 4 -3.6931916553489038e-06
 5 2.2141191859015178e-17
 6 -0.32967736715797485
 7 -6.9106727204164921e-12
 8 2.0203712512242979e-05
 9 -1.2382402440540309e-16
 10 0.83679194053472339
 11 4.1572078117309057e-11
 12 -0.00011370571912005254
 13 5.4491750800159577e-16
 14 0.064481139060940815
 15 0.064490279023717928
 16 0.047825109461892536
 17 1.1920482223332981e-12
 18 3.323829707432346e-17
 19 -1.2638000849289713e-15
 20 0.096034671476094555
 21 -0.44487750257900693
 22 5.6416504893770604e-12
 23 -0.11943296027740416
 24 9.1127658828769512e-15
 25 0.095984737872397197
 26 -0.44459459447287908
 27 -0.10326533459061403
 28 0.059598747511721284
 29 -4.1015557829708197e-15
 30 0.095984737871808376
 31 -0.44459459445994515
 32 0.10326533456427195
 33 0.059598747490000763
 34 -2.4420016119764933e-15
Sym= A
Ene= -0.51767054673014179
Spin= Alpha
Occup= 2
 1 5.1961587241647291e-17
 2 -1.496611307636562e-16
 3 5.1242584663410306e-16
 4 2.0180570130362606e-13
 5 -0.020294934587754995
 6 -1.6087204319626002e-16
 7 -2.9892162089129773e-15
 8 -1.1077798876897377e-12
 9 0.11132956600896313
 10 -1.969426147850401e-15
 11 1.869427654591871e-14
 12 7.0862083222416429e-12
 13 -0.72234898343383036
 14 -1.3492265346770108e-13
 15 1.3516023477589115e-13
 16 3.1122656904067799e-16
 17 1.4844605105115831e-16
 18 1.2617343544077826e-12
 19 1.6616103494646845e-05
 20 8.4784729026364871e-13
 21 -4.3275120335464482e-12
 22 4.9653124628315e-15
 23 -2.3351745803444198e-12
 24 -0.24933618662621018
 25 -4.2168412601241801e-13
 26 2.151910867875316e-12
 27 3.027359365142906e-12
 28 2.9330448708307974e-12
 29 -0.24918673897953811
 30 -4.2570378203245491e-13
 31 2.1722757144264936e-12
 32 -3.0404191272771652e-12
 33 2.921977906802323e-12
 34 -0.24918673891007467
Sym= A
Ene= -0.50747087728322404
Spin= Alpha
Occup= 2
 1 1.4718832226340355e-12
 2 -4.7112740446451707e-12
 3 0.017451786956516415
 4 2.8710518597011082e-11
 5 5.5134630219526417e-16
 6 1.7960575838857496e-11
 7 -0.095799643490447464
 8 -1.5760274510259012e-10
 9 -3.1387700215866465e-15
 10 -4.805971272809471e-11
 11 0.6099327106757203
 12 1.0051230001983882e-09
 13 2.0918490258671351e-14
 14 -1.6747879132452193e-11
 15 9.2238797213491167e-12
 16 -2.1054087812394081e-12
 17 -0.0073475290099101484
 18 -6.4365631420814135e-15
 19 4.0365280364552075e-15
 20 1.1613274369942276e-10
 21 -5.9389994119244313e-10
 22 0.32113157323492658
 23 -3.5768543302621271e-10
 24 1.5827021964168761e-14
 25 0.06329142955330111
 26 -0.3229656076839072
 27 -0.090256330158369216
 28 0.23711562550282766
 29 1.8154917234679433e-13
 30 -0.063291429685751244
 31 0.32296560835304572
 32 -0.090256330976960092
 33 -0.23711562481476547
 34 -1.7731459728931306e-13
Sym= A
Ene= -0.50736183571965099
Spin= Alpha
Occup= 2
 1 -1.2124287180672951e-05
 2 3.9459448180828397e-05
 3 3.0169023258614299e-11
 4 -0.017458543270779166
 5 -2.3851265384298093e-13
 6 -0.00012478476731384304
 7 -1.6561024841329699e-10
 8 0.095836874794319918
 9 1.3080829860202653e-12
 10 0.00047225236607343626
 11 1.0526887012295072e-09
 12 -0.61015721021545122
 13 -8.4562989353725597e-12
 14 0.0063456237702809466
 15 -0.006286941455106821
 16 9.714769840038219e-07
 17 -9.7064547166938457e-12
 18 -2.6645505949939044e-16
 19 -4.9757705344974355e-15
 20 -0.073127147464555189
 21 0.37322362208057008
 22 5.5058259940209222e-10
 23 0.22767086305597928
 24 -3.0778298824084541e-12
 25 0.036563118550118484
 26 -0.18658257389237445
 27 -0.23701825064693963
 28 -0.18365967302965272
 29 -3.3504900451354722e-12
 30 0.036563118333580252
 31 -0.18658257278487353
 32 0.23701825023889031
 33 -0.18365967373091935
 34 -3.3513728922223613e-12
Sym= A
Ene= -0.38310303087029646
Spin= Alpha
Occup= 2
 1 1.2462360332296847e-15
 2 -4.4958896807264571e-15
 3 -2.4487089484726789e-05
 4 6.7142741607321908e-12
 5 3.8047457214747261e-17
 6 7.9096503322554221e-15
 7 0.00013454110250094169
 8 -3.6904775475901066e-11
 9 -2.1303819255911081e-16
 10 -7.9949022752701997e-14
 11 -0.00080471945450398693
 12 2.3045543877969547e-10
 13 1.4175780479149888e-15
 14 1.1274086949202356e-11
 15 -1.1282949876957224e-11
 16 5.05520061416652e-15
 17 -9.0480897797810841e-05
 18 4.0297966988607873e-14
 19 -1.4853536468190855e-15
 20 2.7893770223425398e-11
 21 -1.4253799085538711e-10
 22 0.43210560662785652
 23 -1.6638272749717869e-10
 24 2.3297341863334567e-14
 25 -9.4740236889229062e-05
 26 0.00047194922415903903
 27 -0.21450968195232992
 28 -0.37337423215509358
 29 -1.2538251115906889e-12
 30 9.474020902205153e-05
 31 -0.00047194908177141797
 32 -0.21450968190328698
 33 0.37337423173750278
 34 1.230311449895824e-12
Sym= A
Ene= -0.34451640204773715
Spin= Alpha
Occup= 2
 1 -4.6637356615847174e-06
 2 1.5353884295301579e-05
 3 -3.5596575593381538e-10
 4 -0.0090204976722931905
 5 1.506299361423884e-14
 6 -3.4906127743510486e-05
 7 1.9573676435848987e-09
 8 0.049601390196940598
 9 -8.2282042309373566e-14
 10 0.00020910180099720856
 11 -1.2057780446483334e-08
 12 -0.30525577661333125
 13 4.9153704339220667e-13
 14 -0.023143298137332378
 15 0.023162916653896914
 16 -8.79534901811603e-06
 17 -1.0453417949966417e-09
 18 1.1661154350569019e-15
 19 4.973010636520178e-14
 20 -0.037484823723336662
 21 0.19120730469104499
 22 1.9755582782716469e-08
 23 0.27704506245066829
 24 -1.1457058489274163e-12
 25 0.018741993554132769
 26 -0.095583326763209062
 27 0.096737079102883025
 28 0.44467073871232299
 29 1.5476289845562013e-12
 30 0.018741996113876756
 31 -0.095583339822091079
 32 -0.096737053206844795
 33 0.44467073147805458
 34 1.6280491501150533e-12
Sym= A
Ene= -0.34435710443855683
Spin= Alpha
Occup= 2
 1 5.5968063089426978e-13
 2 -1.7851671012113469e-12
 3 0.009048067407518557
 4 -3.5176739613327869e-10
 5 4.3388184810871577e-16
 6 7.4949879403898611e-12
 7 -0.049753240024341283
 8 1.9342842749928947e-09
 9 -2.3368916817144173e-15
 10 -1.7227169692839921e-11
 11 0.30640069592856456
 12 -1.1900356281891756e-08
 13 1.4012842676689357e-14
 14 -9.0933495100592993e-10
 15 9.0613692570599058e-10
 16 -1.0907287917734736e-12
 17 0.026712174841304795
 18 4.9700260185839848e-14
 19 8.5481699564244379e-16
 20 -1.4643232478085851e-09
 21 7.4681603976559249e-09
 22 -0.49929980203470564
 23 1.0835641287074532e-08
 24 6.5824226978818734e-15
 25 0.032531828378080455
 26 -0.16596018368198112
 27 -0.33328594632833147
 28 -0.097693766754278072
 29 -1.5850648923213602e-12
 30 -0.032531826921464641
 31 0.1659601762516025
 32 -0.33328595393653415
 33 0.097693801620382742
 34 1.5739524207055254e-12
Sym= A
Ene= -0.30875267573771675
Spin= Alpha
Occup= 2
 1 1.8133024059452212e-16
 2 -5.9278152514939464e-16
 3 -2.0819284491489597e-14
 4 7.5992397604903818e-16
 5 2.974508735210516e-12
 6 2.0314518027267016e-15
 7 1.1455943315725273e-13
 8 -4.1814568132691316e-15
 9 -1.633617302814449e-11
 10 -7.165527883326325e-15
 11 -6.9697590009424616e-13
 12 2.6698595337759e-14
 13 1.0534919119547046e-10
 14 8.239193536779276e-16
 15 -1.9926292163029169e-15
 16 9.7039824054173292e-17
 17 -8.1346318695330056e-14
 18 0.016506378638153553
 19 -2.4782847502087429e-09
 20 2.7290992644360392e-15
 21 -1.3955753231715159e-14
 22 5.8365370820425626e-13
 23 -2.1920717366426408e-14
 24 9.125663124641453e-08
 25 -7.8138040530067457e-14
 26 3.9676572770193851e-13
 27 1.4672445027434987e-12
 28 1.2149627827860723e-12
 29 -0.52732747046620787
 30 7.4419583820366879e-14
 31 -3.7721099111173569e-13
 32 1.4905869495425629e-12
 33 -1.2796764940277189e-12
 34 0.52732737910447913
Sym= A
Ene= -0.30866095204422078
Spin= Alpha
Occup= 2
 1 -2.210093912781143e-15
 2 7.235116854883257e-15
 3 4.2653769651195896e-16
 4 2.1565290013180849e-14
 5 -7.638652802052959e-06
 6 -2.5596920777006587e-14
 7 -2.3343198614001587e-15
 8 -1.186276829084426e-13
 9 4.1963970269853548e-05
 10 8.6362274796494647e-14
 11 1.5272343328025327e-14
 12 7.2230300298290263e-13
 13 -0.00025925156869212177
 14 7.676721038156766e-14
 15 -6.3785407802810616e-14
 16 9.7695309633675682e-16
 17 -1.4828791454894913e-16
 18 2.4746460880840988e-09
 19 0.016529138862148771
 20 9.230543270394431e-14
 21 -4.7381542225123882e-13
 22 1.3501979754071765e-14
 23 -7.2524384867155899e-13
 24 -0.60862516789353105
 25 -4.1440447646915987e-14
 26 2.0655056326945458e-13
 27 -3.3651359451292735e-13
 28 -1.4201822408232464e-12
 29 0.30473340174986541
 30 -4.431155644575091e-14
 31 2.2150222026797536e-13
 32 3.1229655554663003e-13
 33 -1.3927967319928851e-12
 34 0.30473355987154505
Sym= A
Ene= 0.057793276767635321
Spin= Alpha
Occup= 0
 1 7.2403842223198854e-17
 2 -2.3518735211469792e-16
 3 1.9039743794872939e-16
 4 -3.2880442191874497e-15
 5 -0.0188484068568259
 6 8.7028041047447769e-16
 7 -1.0497280791034189e-15
 8 1.7980556621188732e-14
 9 0.10380214293144027
 10 -2.5663130456748898e-15
 11 7.3376448554182609e-15
 12 -1.2956758323888004e-13
 13 -0.72461176403782657
 14 2.5426677943192776e-14
 15 -2.5585764964692839e-14
 16 -3.3927586103053083e-16
 17 5.5119048388492933e-16
 18 3.6262085185818553e-13
 19 -2.9615864792135912e-05
 20 -8.9633039240253257e-15
 21 5.1937205724494578e-14
 22 -4.8098475703073444e-15
 23 -1.2326009801077485e-13
 24 0.35996909715779285
 25 4.6318001065112485e-15
 26 -2.7301075886308502e-14
 27 -2.0543818467930085e-13
 28 -4.7477517809947036e-13
 29 0.35933671561098368
 30 3.9653897880605843e-15
 31 -2.2525585412974653e-14
 32 1.9991749874587768e-13