[Molden Format]
[Title]
generated by GANSU
[Atoms] (Angs)
Na 1 11 0 0 -1.4553
Cl 2 17 0 0 0.9416
[GTO]
1 0
 s 3 1.00
    45.6785 0.535328
    12.3624 0.444635
    250.772 0.154329
 s 3 1.00
    12.0402 -0.0999672
    2.79788 0.399513
    0.909958 0.700115
 p 3 1.00
    0.909958 0.391957
    2.79788 0.607684
    12.0402 0.155916
 s 3 1.00
    1.47874 -0.21962
    0.412565 0.225595
    0.161475 0.900398
 p 3 1.00
    0.412565 0.595167
    0.161475 0.462001
    1.47874 0.0105876

2 0
 s 3 1.00
    601.346 0.154329
    29.6447 0.444635
    109.536 0.535328
 s 3 1.00
    38.9604 -0.0999672
    9.05356 0.399513
    2.9445 0.700115
 p 3 1.00
    38.9604 0.155916
    2.9445 0.391957
    9.05356 0.607684
 s 3 1.00
    0.232524 0.900398
    0.594093 0.225595
    2.12939 -0.21962
 p 3 1.00
    2.12939 0.0105876
    0.594093 0.595167
    0.232524 0.462001

[MO]
Sym= A
Ene= -103.32
Spin= Alpha
Occup= 2
 1 -1.7084748214149848e-05
 2 7.4034435886158767e-05
 3 -3.2753687954293548e-16
 4 -9.026600770074861e-17
 5 6.1861307518335892e-05
 6 -0.00020423052618438801
 7 9.7512077016549181e-18
 8 4.1585672652350272e-16
 9 -0.00027505045336926232
 10 -0.99448905135654309
 11 -0.015785531581133824
 12 5.4372788042671882e-19
 13 5.4366599999067657e-18
 14 2.1454432681479179e-05
 15 0.0017058131887677272
 16 3.1148749736399882e-19
 17 -4.6444270260236379e-17
 18 -8.8682174571128565e-05
Sym= A
Ene= -40.294828879764928
Spin= Alpha
Occup= 2
 1 -0.99364566693558565
 2 -0.022611313674874012
 3 -4.5413819077068619e-17
 4 3.691431616078235e-17
 5 1.556485550870993e-05
 6 0.0061797217196468326
 7 4.1906700207169081e-17
 8 4.0789662690347057e-17
 9 0.00029504631490833978
 10 -3.1020248400560772e-05
 11 8.9272434215146689e-05
 12 -1.9979764977902202e-19
 13 4.5169607815214404e-19
 14 -6.140909073307983e-05
 15 -0.00068628793425791132
 16 1.6252541096243851e-18
 17 -3.4435876635460076e-18
 18 0.00068296662005275721
Sym= A
Ene= -10.036883511269147
Spin= Alpha
Occup= 2
 1 -0.00035896635049933334
 2 0.0014380955760419059
 3 6.2414673647787459e-16
 4 -2.352766245287237e-17
 5 0.0011761370163608635
 6 -0.0043293845302523433
 7 3.3761685342447647e-16
 8 -2.133310758377168e-16
 9 -0.0056972248871860571
 10 -0.37711765128561292
 11 1.0535057959564531
 12 -8.5392756706399716e-18
 13 -2.1929453812762143e-17
 14 -0.0020330580810297787
 15 0.043458589974584828
 16 2.2014483392901523e-17
 17 1.0007264444527984e-16
 18 -0.0022494623230247821
Sym= A
Ene= -7.4785017033426069
Spin= Alpha
Occup= 2
 1 -0.00043615347017380613
 2 0.0016928242433445421
 3 1.2841030293877653e-16
 4 1.0679449767522952e-16
 5 0.0014321163819841839
 6 -0.0058483846189438535
 7 -2.8698164348914641e-16
 8 -5.0804329647425873e-16
 9 -0.0075369199572658261
 10 0.0020568993227674743
 11 -0.005863901137550794
 12 -2.0177808585711167e-16
 13 -2.4185309076045966e-16
 14 -0.44215772945101722
 15 0.0024943963511165328
 16 1.5216119077842041e-17
 17 5.844414117073003e-17
 18 -0.039405890358400815
Sym= A
Ene= -7.4769712472587671
Spin= Alpha
Occup= 2
 1 -3.5308486116018474e-19
 2 1.4788455566627713e-18
 3 0.00038910854983325248
 4 0.00013887643083322138
 5 -2.1104364397704574e-18
 6 -3.9061142119684348e-18
 7 -0.001739764520138877
 8 -0.00062093800598972371
 9 -4.2450267617107262e-18
 10 -3.9462251634878473e-18
 11 1.1207240481999523e-17
 12 0.41670381244452243
 13 0.1487254346161111
 14 -2.6483947862801255e-16
 15 2.2273476630269842e-18
 16 0.034618629103868072
 17 0.012355708072557703
 18 -1.6800560572198499e-17
Sym= A
Ene= -7.4769712472587671
Spin= Alpha
Occup= 2
 1 -5.1810606042224412e-20
 2 2.2082275367650414e-19
 3 -0.00013887643083342597
 4 0.00038910854983401945
 5 2.6039707043937927e-18
 6 -1.8360536628764583e-18
 7 0.00062093800598859278
 8 -0.001739764520139118
 9 -5.0178229532693351e-18
 10 -5.7964559062424045e-18
 11 1.6281611581342641e-17
 12 -0.14872543461611135
 13 0.41670381244452259
 14 -1.5382899699293264e-16
 15 3.0381394823689565e-18
 16 -0.012355708072558119
 17 0.034618629103867232
 18 -1.1522744562088362e-17
Sym= A
Ene= -2.8446489014924281
Spin= Alpha
Occup= 2
 1 0.29971294817893895
 2 -1.0038563215844929
 3 -2.13929387753785e-16
 4 6.6396571112295681e-17
 5 0.0096131650491386601
 6 -0.072686771741918552
 7 1.9843752951826994e-16
 8 2.549537971424229e-16
 9 0.0045851505456337557
 10 2.1856529833200048e-05
 11 6.9311297553019958e-05
 12 5.1689616983582853e-18
 13 5.2863049561539107e-18
 14 4.6298120125559276e-05
 15 0.0025645197764422954
 16 -3.9211863497443787e-17
 17 -4.07688284109886e-17
 18 -0.0017943907617502207
Sym= A
Ene= -1.4993288142387624
Spin= Alpha
Occup= 2
 1 -7.6454204106892282e-17
 2 2.732443372425607e-16
 3 0.11892585946132615
 4 0.52968465781085483
 5 3.3139602273882916e-15
 6 2.3874073885107905e-17
 7 0.038448212115730053
 8 0.17124474164158984
 9 1.3201141357151846e-15
 10 -3.2241656484728014e-17
 11 1.0133480954601858e-16
 12 1.9266585143056081e-05
 13 8.5811568693560189e-05
 14 2.0989049274941744e-17
 15 -5.242349593988615e-16
 16 -0.00039790135249867466
 17 -0.0017722154180366038
 18 -4.7523066153139202e-16
Sym= A
Ene= -1.4993288142387604
Spin= Alpha
Occup= 2
 1 -1.5227918061637145e-16
 2 5.4758098843674061e-16
 3 -0.52968465781085317
 4 0.11892585946132753
 5 7.5555992548127e-15
 6 -8.8696975882981496e-17
 7 -0.17124474164159337
 8 0.038448212115725966
 9 3.2836811029640012e-15
 10 -1.1691769196920067e-16
 11 3.6235349624753365e-16
 12 -8.5811568694739421e-05
 13 1.9266585142661756e-05
 14 3.5839915342703971e-17
 15 -7.8346974812775631e-16
 16 0.0017722154180464214
 17 -0.00039790135249997873
 18 -2.0303266516276905e-16
Sym= A
Ene= -1.498152080252636
Spin= Alpha
Occup= 2
 1 0.0065925207281753067
 2 -0.023245295336604823
 3 -6.6776074874888953e-15
 4 5.7820999440655144e-15
 5 -0.54264265964524894
 6 0.0066846458525759338
 7 -2.5564883422616127e-15
 8 -3.4647231029298079e-16
 9 -0.17571354531288266
 10 -0.0010960382794396176
 11 0.0043479629132291966
 12 -5.4291570409211023e-17
 13 -2.5350378082924906e-17
 14 -0.0008573159147782051
 15 -0.0010704162628979066
 16 4.1027085864627603e-16
 17 1.9679669743348758e-16
 18 -0.00024106710204688058
Sym= A
Ene= -0.77012412636919592
Spin= Alpha
Occup= 2
 1 0.0094306332305265344
 2 -0.037830492447050931
 3 -1.5306973244187837e-16
 4 5.3166056302266546e-16
 5 -0.032365362324184604
 6 0.030835490756049008
 7 2.8359961676551132e-17
 8 -7.2893043219253329e-16
 9 0.0074558243084621671
 10 0.088484219077704165
 11 -0.29054679265513006
 12 -1.8386948773727028e-17
 13 3.1188073900179305e-17
 14 0.0075947673712629827
 15 1.0179980009679512
 16 1.3479040661037845e-16
 17 -2.1933867413124151e-16
 18 -0.053664237084785134
Sym= A
Ene= -0.21278573695833419
Spin= Alpha
Occup= 2
 1 -0.03180005830138178
 2 0.12944049156536838
 3 4.7902008686486237e-16
 4 2.2216501199653837e-15
 5 0.064676643975017004
 6 -0.18590492064561095
 7 -1.2923267369182903e-15
 8 -5.2167288505854903e-15
 9 -0.094263215626339478
 10 0.0084052479831785345
 11 -0.026868148432709068
 12 1.4841487896734845e-16
 13 -1.5212565540424335e-16
 14 -0.11748479661182963
 15 0.11184237576983524
 16 -1.1027417156109072e-15
 17 1.1623543709855847e-15
 18 0.86431241079520715
Sym= A
Ene= -0.19665924575787813
Spin= Alpha
Occup= 2
 1 1.1871334354194993e-17
 2 -5.9724375808285681e-17
 3 -0.0055795542573886421
 4 -0.022482363186578719
 5 -6.8927616157116451e-17
 6 4.5438027107944107e-17
 7 0.010802842925213841
 8 0.043529182957687561
 9 1.8934726790588953e-16
 10 1.4417881329843871e-17
 11 -5.4203805262598487e-17
 12 -0.02989867643761954
 13 -0.12047430161261337
 14 9.1094606954302795e-17
 15 1.6586981303158805e-16
 16 0.22227357108751897
 17 0.89563340034735184
 18 -3.1698943339824594e-16
Sym= A
Ene= -0.19665924575787555
Spin= Alpha
Occup= 2
 1 3.7355790526220074e-17
 2 -1.5052556752965662e-16
 3 0.02248236318657033
 4 -0.005579554257385033
 5 -3.1010533783862025e-16
 6 1.940164970590826e-16
 7 -0.043529182957681038
 8 0.010802842925207223
 9 1.4284349362591514e-16
 10 6.9464448555116017e-18
 11 -2.2888352617472453e-17
 12 0.12047430161261399
 13 -0.029898676437619499
 14 1.7719033671801881e-16
 15 4.9618525314619977e-17
 16 -0.89563340034735239
 17 0.22227357108752011
 18 -1.2202107789908154e-15
Sym= A
Ene= 0.37989468446492958
Spin= Alpha
Occup= 0
 1 0.14286191136550094
 2 -0.57602789609653215
 3 2.4643162586775754e-16
 4 7.9583843667545972e-16
 5 0.12087316536256332
 6 1.0848383307836631
 7 -6.2190025438438603e-16
 8 -1.8859037379304319e-15
 9 -0.28819025861016861
 10 -0.0065281276937032996
 11 0.020336539866177551
 12 1.3840141137944365e-18
 13 -3.1799046528368638e-17
 14 -0.027106122316999014
 15 -0.096274681725320443
 16 -7.5452393502865651e-18
 17 2.4983456389396172e-16
 18 0.21573912823054806
Sym= A
Ene= 0.6662991787172714
Spin= Alpha
Occup= 0
 1 5.124013499671309e-17
 2 -5.0173041062985674e-17
 3 -0.18621255089645231
 4 -0.35679326095438207
 5 6.566559778041532e-17
 6 6.0340210818354336e-16
 7 0.50914505260146969
 8 0.97554929966823889
 9 -2.7799673662594205e-15
 10 1.6013997723612667e-16
 11 -4.2866448935436895e-16
 12 0.0054492979777003734
 13 0.010441147957083083
 14 -7.6390220228087726e-16
 15 1.1144144214602169e-15
 16 -0.044315197964014653
 17 -0.084910302314754008
 18 3.7931708346901827e-15
Sym= A
Ene= 0.66629917871727784
Spin= Alpha
Occup= 0
 1 -1.0229726805829628e-17
 2 7.0337581938869135e-18
 3 0.35679326095438291
 4 -0.18621255089645056
 5 8.5853418603606687e-17
 6 -1.386800892418812e-18
 7 -0.97554929966823856
 8 0.50914505260147047
 9 -7.8289507782093471e-16
 10 2.0578656262287598e-17
 11 -8.7374021015728692e-17
 12 -0.010441147957081896
 13 0.0054492979776998149
 14 -1.0978961906700949e-16
 15 6.3403516996756719e-16
 16 0.084910302314745958
 17 -0.044315197964011406
 18 7.4731063265291733e-16
Sym= A
Ene= 0.80677126240775965
Spin= Alpha
Occup= 0
 1 -0.042026401108492283
 2 0.16993024425876663
 3 4.3196339087183172e-17
 4 5.8215025614623556e-16
 5 0.38779533013263651
 6 -0.35462026039361449
 7 5.8994337715507573e-17
 8 -1.4893530447456477e-15
 9 -1.1222516517314844
 10 0.01525399511475636
 11 -0.044487007448424432
 12 5.002050897055311e-18
 13 -3.5562698256036132e-17
 14 0.044655970831655484
 15 0.26594292070839765
 16 -3.5558225784601886e-17
 17 2.7441675133182349e-16
 18 -0.38465053092482565
