[Molden Format]
[Title]
generated by GANSU
[Atoms] (Angs)
O 1 8 0.05 1.012 0
Na 2 11 0.05 -0.846 0
H 3 1 -0.942 1.215 0
[GTO]
1 0
 s 3 1.00
    23.8089 0.535328
    6.44361 0.444635
    130.709 0.154329
 s 3 1.00
    5.03315 -0.0999672
    1.1696 0.399513
    0.380389 0.700115
 p 3 1.00
    0.380389 0.391957
    1.1696 0.607684
    5.03315 0.155916

2 0
 s 3 1.00
    250.772 0.154329
    45.6785 0.535328
    12.3624 0.444635
 s 3 1.00
    2.79788 0.399513
    0.909958 0.700115
    12.0402 -0.0999672
 p 3 1.00
    12.0402 0.155916
    2.79788 0.607684
    0.909958 0.391957
 s 3 1.00
    1.47874 -0.21962
    0.412565 0.225595
    0.161475 0.900398
 p 3 1.00
    1.47874 0.0105876
    0.412565 0.595167
    0.161475 0.462001

3 0
 s 3 1.00
    3.42525 0.154329
    0.623914 0.535328
    0.168855 0.444635

[MO]
Sym= A
Ene= -40.1878
Spin= Alpha
Occup= 2
 1 -9.6920044535595928e-05
 2 0.00079768359760548386
 3 0.00010807262597878597
 4 -0.00049120748185654188
 5 -8.4089693198355456e-17
 6 0.99363171270506279
 7 0.0226656377307334
 8 -4.3172831217209472e-06
 9 -5.8526208380799495e-05
 10 6.8957033215430436e-17
 11 -0.0063011357366458166
 12 2.3184050648891335e-05
 13 -0.00041732051948756445
 14 -1.6732020923098667e-16
 15 0.00040913289851849776
Sym= A
Ene= -19.867857223016813
Spin= Alpha
Occup= 2
 1 -0.99423934985978257
 2 -0.025024147528442148
 3 0.0023065554355825935
 4 0.00071287094111403446
 5 8.5288350074131715e-17
 6 0.00017793528891180886
 7 -0.00072224395099902607
 8 -5.8730091753560765e-05
 9 -0.00065511326233804997
 10 2.3587938396954509e-17
 11 0.0023765123632536202
 12 0.00024653120587307599
 13 0.0034866072170430273
 14 -9.270047572387254e-18
 15 0.0056311658056911705
Sym= A
Ene= -2.7532745075370517
Spin= Alpha
Occup= 2
 1 0.0012157267286931426
 2 -0.0011015757552338586
 3 0.00056977708118480881
 4 0.0016277125986199853
 5 1.4639896953461731e-16
 6 0.29941611824746339
 7 -1.0026359027176373
 8 0.00010699686244291574
 9 0.014502491823916115
 10 1.1264923445341097e-17
 11 -0.074112577011854655
 12 0.00024547641786019486
 13 0.0078765631577707874
 14 2.1713497961635188e-16
 15 0.0020101161339856673
Sym= A
Ene= -1.4072894885556575
Spin= Alpha
Occup= 2
 1 0.017088563481591126
 2 -0.048083696438278326
 3 0.0039766841566145133
 4 0.01414686456694088
 5 -3.8176339106318348e-16
 6 0.0086470543045488093
 7 -0.030346066952059637
 8 0.18294703206524462
 9 -0.50524248929296034
 10 -3.016989890962286e-13
 11 0.0092564240392141416
 12 0.062386592641532429
 13 -0.16918291234152164
 14 -1.0290921371188777e-13
 15 -0.00048423387062320052
Sym= A
Ene= -1.4060286525474579
Spin= Alpha
Occup= 2
 1 -9.2080048285785749e-16
 2 6.9263832813755813e-16
 3 1.5870297550998644e-15
 4 -1.1849017980868006e-15
 5 0.00063515439545926134
 6 -1.3028077897579538e-15
 7 4.4879251546854555e-15
 8 1.0605101712624892e-12
 9 6.1652603653329439e-14
 10 0.54060648896745633
 11 -9.8348137807052108e-16
 12 3.5847002418204989e-13
 13 1.8846479484528455e-14
 14 0.18159418801814195
 15 4.451020754338205e-15
Sym= A
Ene= -1.4058538993353595
Spin= Alpha
Occup= 2
 1 0.005586604664034346
 2 -0.014632963307083873
 3 0.00028838641870292212
 4 0.0050112077478525361
 5 1.346444447493883e-15
 6 0.0033193982328237549
 7 -0.01167146403940336
 8 -0.50835933869558503
 9 -0.18244596903358873
 10 1.019385812393595e-12
 11 0.004037758327738266
 12 -0.17156115951185491
 13 -0.060326118599005052
 14 3.4143524626682483e-13
 15 -0.0031711831438655264
Sym= A
Ene= -0.95068239332306914
Spin= Alpha
Occup= 2
 1 -0.23923675445912759
 2 0.88246941154926983
 3 -0.052857071606516731
 4 -0.0077836489325996136
 5 2.795457087200992e-17
 6 0.014698103274293915
 7 -0.057733217669887558
 8 0.0030997339156454192
 9 -0.073574688908622912
 10 8.7892917576630551e-16
 11 0.040775250025441787
 12 0.0031756723812122567
 13 0.0054945608232504998
 14 -1.3839165933347285e-15
 15 0.22554070125049519
Sym= A
Ene= -0.28310140757125163
Spin= Alpha
Occup= 2
 1 0.090473919800263647
 2 -0.46806967518745368
 3 -0.42325515498757849
 4 0.13028812094357786
 5 -4.3252528135200579e-16
 6 -0.015544553475634071
 7 0.060884340115464779
 8 0.030570016482751212
 9 0.041424658153976036
 10 2.4729836650001293e-15
 11 -0.096764031275811221
 12 -0.045762074808933385
 13 -0.062277801664284066
 14 -5.5877712723261814e-15
 15 0.61684571494041007
Sym= A
Ene= -0.1313511306616422
Spin= Alpha
Occup= 2
 1 -2.6623711714910554e-17
 2 1.4105078489059251e-16
 3 -3.4814716215754613e-16
 4 2.3638072489615799e-15
 5 0.73732583872470425
 6 -9.7885584075600649e-18
 7 4.9833552869626042e-17
 8 6.6095740043497773e-17
 9 3.7116446712283651e-16
 10 -0.047214677758647669
 11 2.3549408384934255e-16
 12 3.3937753562159637e-16
 13 -6.0425187996395494e-16
 14 0.093278123804171303
 15 1.2222957262020817e-16
Sym= A
Ene= -0.12925526613840951
Spin= Alpha
Occup= 2
 1 0.032067426213103628
 2 -0.16504129135224599
 3 -0.18617812624808136
 4 -0.64430839523503192
 5 2.6425831326339686e-15
 6 0.046138071192643536
 7 -0.18682680422448666
 8 0.015017674903329373
 9 -0.086657150489048776
 10 8.2109156622614515e-16
 11 0.27395528626301779
 12 -0.030146164854668044
 13 0.11932702751346852
 14 -2.0698650949322293e-15
 15 0.034412473565104844
Sym= A
Ene= 0.44867661492000838
Spin= Alpha
Occup= 0
 1 -0.026191875266533715
 2 0.13831013295699479
 3 -0.056560605598029223
 4 -0.18029567069193034
 5 5.4485363236703732e-15
 6 -0.13501021763292231
 7 0.54428693043281928
 8 0.0018806342951016492
 9 -0.16769857076055689
 10 1.5129886760369208e-14
 11 -1.0319683118098681
 12 -0.0043511276365451775
 13 0.38744873982743183
 14 -3.8973764686872544e-14
 15 -0.059433645498486877
Sym= A
Ene= 0.73681811976668088
Spin= Alpha
Occup= 0
 1 0.019063248393253938
 2 -0.1172609665879636
 3 -0.007765614598130929
 4 -0.022281393225699487
 5 7.710595616661749e-14
 6 -1.6257066620396408e-05
 7 -0.00052299982637078507
 8 -0.40403786860010049
 9 -0.010989332652776792
 10 2.4100637268301599e-13
 11 -0.0034598874063373353
 12 1.0983425410628422
 13 0.028142094346461491
 14 -6.5571158642602396e-13
 15 0.19539078367609528
Sym= A
Ene= 0.7393895707496787
Spin= Alpha
Occup= 0
 1 -3.1930688106207462e-16
 2 2.0898294970862783e-15
 3 8.2669436597435315e-14
 4 1.1252329694647414e-14
 5 0.12890969478563824
 6 4.6098875529186545e-15
 7 -1.8632709795820829e-14
 8 2.4493685579366723e-13
 9 5.8274838293062511e-15
 10 0.40371325071322006
 11 3.5630956558099016e-14
 12 -6.6638401691075829e-13
 13 -1.0277525265924974e-14
 14 -1.0984941558167296
 15 -6.6792437210381403e-15
Sym= A
Ene= 0.82604617629420873
Spin= Alpha
Occup= 0
 1 0.10016473986381522
 2 -0.62578850199700242
 3 0.62813435615915048
 4 -0.019755152709725689
 5 -1.3501164420884661e-14
 6 0.007409717542664329
 7 -0.032911006581566662
 8 0.037939810389387076
 9 -0.1339839906638674
 10 -4.3951384023825418e-14
 11 0.05399534460070729
 12 -0.10346321570349276
 13 0.37808351308873739
 14 1.2064555030372894e-13
 15 0.94250682662603003
Sym= A
Ene= 1.0216347394167955
Spin= Alpha
Occup= 0
 1 -0.033278029539250131
 2 0.1949920050611294
 3 0.23928965755539564
 4 -0.40144308290314468
 5 -2.223420442703583e-15
 6 -0.052916337928101055
 7 0.21368111377997584
 8 0.0013957791606361214
 9 0.34454341326830873
 10 -7.7971759437910582e-15
 11 -0.47816766448107451
 12 -0.0029661917863405955
 13 -1.063670643698043
 14 2.1813134379341343e-14
 15 0.4132751925072522
