[Molden Format]
[Title]
generated by GANSU
[Atoms] (Angs)
S 1 16 0 0 0.214
O 2 8 0 1.677 0.791
O 3 8 0 -1.677 0.791
O 4 8 1.275 0.118 -0.895
O 5 8 -1.275 -0.118 -0.895
H 6 1 -1.47 -1.096 -0.872
H 7 1 1.47 1.096 -0.872
[GTO]
1 0
 s 3 1.00
    97.1095 0.535328
    26.2816 0.444635
    533.126 0.154329
 s 3 1.00
    33.3298 -0.0999672
    7.74512 0.399513
    2.51895 0.700115
 p 3 1.00
    33.3298 0.155916
    7.74512 0.607684
    2.51895 0.391957
 s 3 1.00
    0.56614 0.225595
    0.221583 0.900398
    2.02919 -0.21962
 p 3 1.00
    2.02919 0.0105876
    0.56614 0.595167
    0.221583 0.462001

2 0
 s 3 1.00
    130.709 0.154329
    23.8089 0.535328
    6.44361 0.444635
 s 3 1.00
    5.03315 -0.0999672
    1.1696 0.399513
    0.380389 0.700115
 p 3 1.00
    1.1696 0.607684
    0.380389 0.391957
    5.03315 0.155916

3 0
 s 3 1.00
    6.44361 0.444635
    23.8089 0.535328
    130.709 0.154329
 s 3 1.00
    5.03315 -0.0999672
    1.1696 0.399513
    0.380389 0.700115
 p 3 1.00
    0.380389 0.391957
    1.1696 0.607684
    5.03315 0.155916

4 0
 s 3 1.00
    6.44361 0.444635
    23.8089 0.535328
    130.709 0.154329
 s 3 1.00
    0.380389 0.700115
    1.1696 0.399513
    5.03315 -0.0999672
 p 3 1.00
    0.380389 0.391957
    1.1696 0.607684
    5.03315 0.155916

5 0
 s 3 1.00
    6.44361 0.444635
    23.8089 0.535328
    130.709 0.154329
 s 3 1.00
    5.03315 -0.0999672
    1.1696 0.399513
    0.380389 0.700115
 p 3 1.00
    5.03315 0.155916
    1.1696 0.607684
    0.380389 0.391957

6 0
 s 3 1.00
    0.623914 0.535328
    0.168855 0.444635
    3.42525 0.154329

7 0
 s 3 1.00
    3.42525 0.154329
    0.623914 0.535328
    0.168855 0.444635

[MO]
Sym= A
Ene= -91.0935
Spin= Alpha
Occup= 2
 1 -0.9941707781234409
 2 -0.017103671685939164
 3 1.0426217149902024e-14
 4 -1.0033032397805707e-14
 5 5.5533670474280809e-05
 6 0.0025538973301047069
 7 -3.5576311051295941e-15
 8 7.6439165000189307e-17
 9 -0.00017971969348249249
 10 4.8808991764018733e-05
 11 -0.00032842468609096519
 12 2.9356621474040526e-06
 13 0.00019882194956876776
 14 7.3351128792526824e-05
 15 4.8808991763993295e-05
 16 -0.0003284246860910799
 17 -2.9356621474345378e-06
 18 -0.00019882194957212659
 19 7.335112879327388e-05
 20 5.2791066797856922e-05
 21 -0.00037383070478636194
 22 0.00020125008542629536
 23 4.775133074432369e-05
 24 -0.00016158426215802558
 25 5.2791066797927239e-05
 26 -0.00037383070478751466
 27 -0.00020125008542654882
 28 -4.7751330744225692e-05
 29 -0.00016158426215857099
 30 -0.00010446821339979057
 31 -0.00010446821339990795
Sym= A
Ene= -20.338333984716453
Spin= Alpha
Occup= 2
 1 0.00018276264253196708
 2 -0.00058243373790442196
 3 5.7308998999490377e-11
 4 2.7157105471229817e-12
 5 0.00026794005773799335
 6 0.0039627727691057615
 7 -6.3934798869287215e-10
 8 -3.5025531641469356e-11
 9 -0.002971334312289273
 10 -0.00031476564802843652
 11 -0.000416176400304873
 12 -5.0141784718761948e-05
 13 0.00015429876893078372
 14 0.00022814698006108945
 15 -0.00031476569614398518
 16 -0.00041617646111917077
 17 5.0141857099617022e-05
 18 -0.0001542987781455779
 19 0.00022814700564468445
 20 -0.70307759008068671
 21 -0.017664058167509822
 22 0.00074842512909077685
 23 -0.001575488292819053
 24 -0.00086496382221720497
 25 -0.70307787307425185
 26 -0.017664065102776978
 27 -0.00074842530727176493
 28 0.0015754889423186934
 29 -0.00086496414729194759
 30 0.0040397661971059307
 31 0.0040397645646397433
Sym= A
Ene= -20.338231789596144
Spin= Alpha
Occup= 2
 1 -3.6778272396873903e-11
 2 1.1720619284298206e-10
 3 0.00028478281117518358
 4 1.3453563491101917e-05
 5 -5.391952338505999e-11
 6 -7.9744793816008407e-10
 7 -0.0031770732951593977
 8 -0.00017371529273963935
 9 5.9794040083687354e-10
 10 0.0001108698559277349
 11 0.00015083851099365414
 12 0.00017985115498118823
 13 -2.2797357692685244e-05
 14 -6.3578988072386896e-05
 15 -0.00011086973038228147
 16 -0.00015083834351884234
 17 0.0001798511347739114
 18 -2.2797295596277841e-05
 19 6.3578896246165208e-05
 20 0.70313701168745024
 21 0.017231367007201976
 22 -0.00044271116608155545
 23 0.0016132676835436863
 24 0.00080754654530985545
 25 -0.70313672871764232
 26 -0.01723135989800318
 27 -0.00044271086486375458
 28 0.0016132670496464881
 29 -0.00080754619724256714
 30 0.0040558144059550391
 31 -0.0040558160317416417
Sym= A
Ene= -20.12471146531178
Spin= Alpha
Occup= 2
 1 1.6741180120892484e-09
 2 -5.4507132591541223e-09
 3 2.9753795653543332e-06
 4 0.00040363937780213817
 5 -1.0640900357162607e-09
 6 3.4011690426139133e-08
 7 -2.8032252554906938e-05
 8 -0.0041633073278539122
 9 1.108193122319355e-08
 10 0.70333490268789933
 11 0.015649758599610951
 12 1.4462388972446762e-05
 13 -0.0010195913374515819
 14 -0.00044191416983671122
 15 -0.70334839816286387
 16 -0.015650051843383587
 17 1.4462667341532115e-05
 18 -0.0010196074884769835
 19 0.00044191887031637753
 20 -0.00015519199976232495
 21 0.00017145952315289928
 22 -2.3549166693487289e-05
 23 0.00024507302185950168
 24 2.7159286420810523e-05
 25 0.00015520053662587251
 26 -0.00017146834722710401
 27 -2.3551208743250819e-05
 28 0.00024507404082976212
 29 -2.7162293082942032e-05
 30 0.00025668422320120966
 31 -0.00025667756861747848
Sym= A
Ene= -20.124606936746474
Spin= Alpha
Occup= 2
 1 -0.00017451380473457116
 2 0.00056819461351174353
 3 2.8544564854767044e-11
 4 3.8721843229914263e-09
 5 0.00011092310614623981
 6 -0.0035454598326156912
 7 -2.6892740296642081e-10
 8 -3.9939442066771521e-08
 9 -0.0011552063096307425
 10 0.70339951628006236
 11 0.015284349110601168
 12 1.450544857390407e-05
 13 -0.00084182989694935289
 14 -0.00024499302569612583
 15 0.70338602178727949
 16 0.01528404884469785
 17 -1.4505171153666686e-05
 18 0.00084181033427941862
 19 -0.00024498454703254894
 20 -0.000444766789722721
 21 0.0004599276701971557
 22 -0.00010643463804185549
 23 5.3113015909255959e-05
 24 0.00015671136270360529
 25 -0.00044476381321944142
 26 0.00045992438037319178
 27 0.00010643418620032819
 28 -5.3108313828772079e-05
 29 0.00015671084158001307
 30 -0.00034684365449359533
 31 -0.00034684857931234541
Sym= A
Ene= -8.9594107122092819
Spin= Alpha
Occup= 2
 1 0.36729058729468805
 2 -1.0467560598759578
 3 1.6179533208132703e-12
 4 2.5182780695945473e-12
 5 0.0046669040530373622
 6 -0.052877523605615408
 7 3.1242031367964702e-13
 8 1.1203259403609126e-12
 9 0.0038211527163134803
 10 -0.00085570667496984469
 11 0.0057049323065071203
 12 -4.6151034782939928e-05
 13 -0.002978070767193833
 14 -0.0011425338053716685
 15 -0.00085570667501169121
 16 0.00570493230696537
 17 4.6151034791783907e-05
 18 0.0029780707675680718
 19 -0.0011425338054905426
 20 -0.00087562383227573082
 21 0.0064380722616300809
 22 -0.0030269966343435509
 23 -0.00079391299471948281
 24 0.0023669860840416028
 25 -0.00087562383228636023
 26 0.0064380722617328771
 27 0.0030269966343694442
 28 0.00079391299464051537
 29 0.0023669860840789549
 30 0.0019962856913922173
 31 0.0019962856913296372
Sym= A
Ene= -6.5921674968869866
Spin= Alpha
Occup= 2
 1 -3.218411743600629e-13
 2 1.042909983294443e-12
 3 -0.40928563893693631
 4 -0.20456825002092868
 5 2.687971435297152e-10
 6 -1.690471210202746e-12
 7 -0.046132327589823038
 8 -0.023974254480697638
 9 2.9493245372965384e-11
 10 -0.00053170052950268537
 11 0.0041380682321974435
 12 0.0017181928560304574
 13 -0.001984334044897246
 14 -0.00093494281384187347
 15 0.00053170052987031556
 16 -0.0041380682353152794
 17 0.001718192856161169
 18 -0.0019843340469748866
 19 0.00093494281227877053
 20 -0.00065702583331652342
 21 0.0061524681783381155
 22 -0.0019058487237258953
 23 3.2126483819303614e-05
 24 0.0033095413778474504
 25 0.00065702583246166958
 26 -0.006152468170744268
 27 -0.0019058487193479735
 28 3.2126484575058313e-05
 29 -0.0033095413766452766
 30 -0.0027036767609935129
 31 0.0027036767626294755
Sym= A
Ene= -6.5904576280974689
Spin= Alpha
Occup= 2
 1 -0.0042951578327800159
 2 0.012573334082125109
 3 6.2382831369631842e-10
 4 -6.4652379974894885e-10
 5 0.45774787897674435
 6 -0.0039771172567157837
 7 6.836598583696742e-11
 8 -7.1462324627828536e-11
 9 0.050300607035352649
 10 0.00031281941496126835
 11 -0.0025564035271330582
 12 -3.576537482256965e-05
 13 0.0017671718186053713
 14 -0.0013062289936393045
 15 0.00031281941818677339
 16 -0.0025564035522040989
 17 3.5765369545194264e-05
 18 -0.0017671718303872727
 19 -0.0013062289878553708
 20 -0.00073248550479736109
 21 0.0065579551686082201
 22 -0.0037456487127542877
 23 -0.00068071229345171658
 24 0.0010114124605743035
 25 -0.00073248550688170334
 26 0.0065579551875028577
 27 0.0037456487163327222
 28 0.00068071230055160876
 29 0.0010114124690506758
 30 0.0013964364385507092
 31 0.0013964364392231076
Sym= A
Ene= -6.5902131337698853
Spin= Alpha
Occup= 2
 1 9.4931725909582409e-12
 2 -2.7652524329849096e-11
 3 0.20478781068573412
 4 -0.40933354568316588
 5 -8.5712793033506677e-10
 6 8.5339685671810714e-12
 7 0.022113357557463027
 8 -0.045972903178499849
 9 -9.4653108067903633e-11
 10 -0.0010375530606116391
 11 0.0080471880512086886
 12 -0.00086729721455140838
 13 -0.00377953900563398
 14 -0.0018801239967752529
 15 0.0010375530594289143
 16 -0.0080471880417724
 17 -0.00086729721476649663
 18 -0.0037795389990137136
 19 0.0018801240016202501
 20 0.000354854742878022
 21 -0.0031381340891468504
 22 0.00036306468129171078
 23 0.001907698164711684
 24 -0.0012339694618579121
 25 -0.00035485474008856589
 26 0.0031381340642144878
 27 0.00036306466715009197
 28 0.0019076981621452222
 29 0.0012339694579948787
 30 -0.0010362675026238696
 31 0.0010362674973448498
Sym= A
Ene= -1.3945488191832152
Spin= Alpha
Occup= 2
 1 -0.039332197519034801
 2 0.13465921192521921
 3 -1.2989536377315571e-11
 4 -2.1100911398889813e-11
 5 -0.018496279162223298
 6 -0.35107264390392173
 7 5.751208471315923e-11
 8 1.0951112242627513e-10
 9 0.082676108400769679
 10 0.027342341766709223
 11 -0.090478270514761414
 12 -0.0014453239246628505
 13 0.011487437998444813
 14 0.0072177077781140075
 15 0.027342341908651091
 16 -0.090478271048737874
 17 0.0014453239348755146
 18 -0.011487438028076745
 19 0.0072177078074889423
 20 0.14592917415629877
 21 -0.5229448265798875
 22 0.040056637587907
 23 -0.037755134892732377
 24 -0.037347499781127939
 25 0.14592917432698882
 26 -0.52294482719998003
 27 -0.040056637615213608
 28 0.037755134983490223
 29 -0.037347499822607655
 30 -0.083228082930389025
 31 -0.083228082772144218
Sym= A
Ene= -1.3239597105257219
Spin= Alpha
Occup= 2
 1 2.2062762345682963e-11
 2 -7.5425373266518669e-11
 3 -0.025488682083818024
 4 -0.0053731004901063362
 5 1.2527091552798175e-11
 6 2.0009477559737699e-10
 7 0.11445896268456998
 8 0.024083844887375413
 9 -5.7894983085587752e-11
 10 -0.007226994491697173
 11 0.024804714605532414
 12 0.0039829174863197283
 13 -0.0021083909452638571
 14 -0.0021743933347617922
 15 0.0072269944903564295
 16 -0.024804714618021424
 17 0.0039829174978231897
 18 -0.00210839093424595
 19 0.0021743933317967638
 20 -0.16900878610687478
 21 0.62519892448959791
 22 -0.024497115041834848
 23 0.049615858099649322
 24 0.03570793438630207
 25 0.1690087859356641
 26 -0.62519892386485421
 27 -0.024497114987953175
 28 0.049615858100900204
 29 -0.035707934345122073
 30 -0.11351599461157827
 31 0.11351599465601789
Sym= A
Ene= -1.1545492227609362
Spin= Alpha
Occup= 2
 1 -0.036048332848110681
 2 0.12140610696060276
 3 4.0724313335974261e-11
 4 -6.8144767035213453e-10
 5 0.01838403860139139
 6 -0.36750969328125022
 7 -2.0496671849348083e-10
 8 3.5890094745564513e-09
 9 -0.092218617265363054
 10 0.14986578486420796
 11 -0.56385538850917505
 12 -0.0030679450188405345
 13 0.03488493701009017
 14 0.014257023958838017
 15 0.14986579107272222
 16 -0.56385541209434165
 17 0.0030679451659550044
 18 -0.034884938081935268
 19 0.014257024581544398
 20 -0.065190821750162747
 21 0.25935222092507776
 22 0.0079785352119123628
 23 0.023783105482936575
 24 -0.00966910207707832
 25 -0.065190822246294369
 26 0.25935222292343341
 27 -0.0079785352317821058
 28 -0.023783105191627307
 29 -0.0096691020658543399
 30 0.052547118744398075
 31 0.052547118909555768
Sym= A
Ene= -1.1286549227694573
Spin= Alpha
Occup= 2
 1 7.2757693580844909e-10
 2 -2.4500512425003035e-09
 3 0.0023166168173288015
 4 -0.038957450879765404
 5 -3.2740807303160148e-10
 6 7.4540127334364792e-09
 7 -0.011848457448676694
 8 0.20645235142081103
 9 1.6572550392811908e-09
 10 -0.17191359939670156
 11 0.65211699475443763
 12 0.003953247890406293
 13 -0.031015378668063476
 14 -0.017807041440387309
 15 0.17191359416690169
 16 -0.65211697519490719
 17 0.0039532477905525583
 18 -0.031015377289610034
 19 0.017807040922343378
 20 0.013456008976413062
 21 -0.05471412839465202
 22 -0.00071553932316673833
 23 0.010233278742658706
 24 -0.00010280883926129673
 25 -0.013456006650225259
 26 0.054714119059040799
 27 -0.00071553886865610369
 28 0.010233279648484191
 29 0.00010280934178526208
 30 -0.0066776876443194501
 31 0.0066776856247373279
Sym= A
Ene= -0.85215578591612562
Spin= Alpha
Occup= 2
 1 0.06739898316072683
 2 -0.22583509458557499
 3 8.8477322736071922e-15
 4 9.5826016413487149e-11
 5 0.016633816024163178
 6 0.74064564274641553
 7 1.3390621479142544e-12
 8 -5.7289150873602478e-10
 9 -0.09533853748225686
 10 0.097240359876053187
 11 -0.41267178726277415
 12 -0.0053809757392177622
 13 -0.042307244749297035
 14 -0.016607824076116745
 15 0.097240359665247356
 16 -0.41267178655016806
 17 0.0053809757337705232
 18 0.04230724498921476
 19 -0.016607824229140832
 20 0.054015743881922929
 21 -0.23008092740963712
 22 -0.12392188758225116
 23 -0.085053968146516473
 24 0.079518221962721278
 25 0.054015743903025382
 26 -0.23008092750928757
 27 0.12392188762648139
 28 0.085053968048608097
 29 0.079518221991076138
 30 -0.16391225172469925
 31 -0.16391225175932311
Sym= A
Ene= -0.65417677273583785
Spin= Alpha
Occup= 2
 1 -2.5839689772737174e-11
 2 8.6719198526774762e-11
 3 0.055057829104471878
 4 -0.027743478335870368
 5 8.6603898623708766e-11
 6 -3.0011700762570426e-10
 7 -0.33094233739331869
 8 0.16921867975256377
 9 -5.27230444235491e-10
 10 0.029657241833034281
 11 -0.1343924040190223
 12 -0.03411973762439878
 13 -0.021398165193435882
 14 -0.038034318342825342
 15 -0.029657241881416128
 16 0.1343924042821103
 17 -0.034119737722217977
 18 -0.021398165368707676
 19 0.038034318474251906
 20 0.024399979333857
 21 -0.13290112574760601
 22 0.078047553734039057
 23 0.295150863397385
 24 -0.11669533980952292
 25 -0.024399979457483574
 26 0.1329011263669708
 27 0.078047554173229755
 28 0.29515086414057756
 29 0.11669533965972399
 30 -0.30507945021165228
 31 0.30507944938497072
Sym= A
Ene= -0.61206502825138243
Spin= Alpha
Occup= 2
 1 -0.026211878322852697
 2 0.08799455076382616
 3 -1.6219006592077394e-10
 4 -7.9000043550794991e-11
 5 0.059090685266226337
 6 -0.29937039880028543
 7 9.8227964574375781e-10
 8 5.0166158376209654e-10
 9 -0.36346313218861553
 10 -0.045740754278921478
 11 0.20817521207664302
 12 -0.024954801931937078
 13 0.076149066667498544
 14 -0.014392394907864909
 15 -0.045740754286981156
 16 0.20817521219471344
 17 0.024954802392364056
 18 -0.076149067024536679
 19 -0.014392394957844697
 20 -0.04075674718265658
 21 0.20863605704795132
 22 -0.15632726408686165
 23 -0.2572493825284527
 24 -0.10636730464329179
 25 -0.040756747278984172
 26 0.20863605744892225
 27 0.15632726365178129
 28 0.25724938200856773
 29 -0.10636730566760499
 30 -0.26871775618309396
 31 -0.26871775693735783
Sym= A
Ene= -0.5670095610268503
Spin= Alpha
Occup= 2
 1 5.1788778873930989e-11
 2 -1.736929137611908e-10
 3 -0.068967286170089501
 4 -0.040375391993995507
 5 -8.6356988382270682e-11
 6 5.8784875176145569e-10
 7 0.41976284065382685
 8 0.25238598145536362
 9 5.3830074755040618e-10
 10 0.03170504340398192
 11 -0.14770093578096208
 12 0.099599769278351458
 13 -0.043550190326824605
 14 -0.051171686629311611
 15 -0.031705043200840423
 16 0.14770093488947145
 17 0.099599769815762615
 18 -0.043550190079380977
 19 0.051171686951726317
 20 0.058995935414460035
 21 -0.2872437852790598
 22 -0.077799643400049981
 23 0.14941450686798544
 24 0.29315351651916599
 25 -0.058995935314212038
 26 0.28724378476651674
 27 -0.077799643894341575
 28 0.14941450624261585
 29 -0.29315351600482886
 30 -0.074173413443229891
 31 0.074173414037396107
Sym= A
Ene= -0.54168165173063276
Spin= Alpha
Occup= 2
 1 -0.004791353322718267
 2 0.014827710532404942
 3 -8.6213875983660127e-12
 4 -5.0468652310529552e-11
 5 0.057054609584040857
 6 -0.069154151399111907
 7 4.9935010622669401e-11
 8 3.2066286588377414e-10
 9 -0.35412221966234159
 10 -0.014633459108562199
 11 0.069995174767174914
 12 0.022051448495675939
 13 0.057372652608154669
 14 -0.071467060288169029
 15 -0.01463345914857195
 16 0.069995174982583286
 17 -0.022051448565517578
 18 -0.057372652942705826
 19 -0.071467060691653914
 20 0.054585916432478301
 21 -0.27378498332324042
 22 -0.29036816049324932
 23 0.26493645632226454
 24 -0.092950791480852654
 25 0.054585916422298361
 26 -0.27378498327075773
 27 0.29036816053115894
 28 -0.2649364562423781
 29 -0.092950791662660653
 30 0.16761144150499352
 31 0.16761144149562543
Sym= A
Ene= -0.46461697053595125
Spin= Alpha
Occup= 2
 1 2.3489823415014588e-12
 2 -5.6675364441316595e-12
 3 0.010576854519926904
 4 0.048548155489837624
 5 -7.3157749606552617e-11
 6 6.2872230262180537e-11
 7 -0.060157399744287944
 8 -0.31013408846237717
 9 4.5090001688267784e-10
 10 -0.029754977944451488
 11 0.14350972279343802
 12 -0.01160261804905805
 13 0.067417626009084033
 14 0.070509275836887306
 15 0.029754977932558758
 16 -0.14350972278277094
 17 -0.011602618180379914
 18 0.067417626208630552
 19 -0.070509276102938875
 20 0.0065479424458219091
 21 -0.040287267591792471
 22 0.39446242521721148
 23 -0.005437794934147362
 24 0.25849383743698029
 25 -0.0065479425286594289
 26 0.040287267996377586
 27 0.39446242547685301
 28 -0.0054377947856654087
 29 -0.25849383882185167
 30 -0.10707216810718312
 31 0.10707216803605936
Sym= A
Ene= -0.44296838017714113
Spin= Alpha
Occup= 2
 1 0.01414325046928977
 2 -0.046067193545754184
 3 -3.4358905378010599e-11
 4 2.7550146207082354e-11
 5 -0.056635619632016597
 6 0.18140854902858938
 7 2.0810156389417683e-10
 8 -1.8090038722799043e-10
 9 0.35406678832405547
 10 0.022274533046906096
 11 -0.10723166615581489
 12 -0.0016398019573049276
 13 -0.11074663465416787
 14 0.11920796026265765
 15 0.022274533040653216
 16 -0.10723166616547021
 17 0.0016398020422960502
 18 0.11074663531046872
 19 0.11920796166376668
 20 -0.017333477480408706
 21 0.087150550737464111
 22 -0.12864926300415597
 23 -0.00080234139491381642
 24 -0.42643718286254778
 25 -0.017333477513205995
 26 0.087150550898247858
 27 0.12864926170645566
 28 0.0008023416281165163
 29 -0.42643718211865023
 30 -0.012536310592004706
 31 -0.012536310606091085
Sym= A
Ene= -0.40390892452187721
Spin= Alpha
Occup= 2
 1 -1.3701615927728623e-11
 2 4.7534653431426531e-11
 3 -0.024031991016113162
 4 0.086234230320762315
 5 6.733021660312115e-12
 6 -1.2475730487960999e-10
 7 0.14984665287892329
 8 -0.55535680420556366
 9 -6.2781411887808953e-11
 10 -0.0502914089455282
 11 0.24590541541923008
 12 0.094625766419835625
 13 0.1343108988979258
 14 0.18567307197924821
 15 0.050291408859258438
 16 -0.24590541507047264
 17 0.094625767755088824
 18 0.1343108984039883
 19 -0.1856730745402628
 20 0.028027699171230384
 21 -0.14844405627237997
 22 -0.19874229196620605
 23 0.17892421375532505
 24 -0.072643153911693514
 25 -0.028027699187025714
 26 0.14844405631702007
 27 -0.19874229242643371
 28 0.17892421391352714
 29 0.072643153412501216
 30 -0.1382467650527551
 31 0.1382467651796612
Sym= A
Ene= -0.32088380028875735
Spin= Alpha
Occup= 2
 1 -6.0448383014445231e-09
 2 2.0391528643031494e-08
 3 -0.00050317309815053424
 4 0.00024357035678307463
 5 -1.2501345334774994e-08
 6 -7.2973043490096438e-08
 7 -0.0099388703276934009
 8 -0.00071686604922581128
 9 5.033329086801321e-08
 10 -0.0019826551383312053
 11 0.0081884352471667723
 12 -0.4766619818221311
 13 -0.0080289261033465054
 14 0.12446048884134214
 15 0.0019827145146929822
 16 -0.0081886661113791462
 17 -0.47667833839750717
 18 -0.0080286552005827284
 19 -0.12446282846678261
 20 0.00030068562319226686
 21 0.0043521487346776314
 22 -0.12095482679490605
 23 0.062685562858900715
 24 0.13512010953635273
 25 -0.00030075198003388866
 26 -0.0043518303824735495
 27 -0.12095527237152655
 28 0.062687157465520379
 29 -0.13512084942551428
 30 0.026569860365823931
 31 -0.026570012768921965
Sym= A
Ene= -0.32084940525215971
Spin= Alpha
Occup= 2
 1 -0.00038952619074775576
 2 0.0013132484687677485
 3 7.8197640538907101e-09
 4 -3.609199456938971e-09
 5 -0.00078231040580347409
 6 -0.004708880805492823
 7 1.5718754744262407e-07
 8 9.8137525224960518e-09
 9 0.0031286938475160193
 10 0.0018769652372155779
 11 -0.0072915267252251078
 12 0.51928899382137972
 13 -0.0086354979303666628
 14 -0.073995977729771664
 15 0.0018769030227936631
 16 -0.0072912699885840648
 17 -0.51927397883674786
 18 0.0086357534426261835
 19 -0.073992052667474828
 20 -0.0021053939613598404
 21 0.010103006193594551
 22 0.014090716380070116
 23 -0.050591366968399387
 24 -0.023396134395849269
 25 -0.0021053846577132017
 26 0.010103144167673744
 27 -0.014086907248274091
 28 0.050589392825104815
 29 -0.023391878236521446
 30 -0.0048492070718528374
 31 -0.0048483695025705676
Sym= A
Ene= -0.31511911406375925
Spin= Alpha
Occup= 2
 1 0.0097251394360505644
 2 -0.031548353398804803
 3 8.186485764196108e-10
 4 -5.8188283488623427e-09
 5 -0.017095024120911045
 6 0.12788108284495364
 7 -4.6451147611179615e-09
 8 3.7790347896889701e-08
 9 0.099392242321425267
 10 0.013070104075884008
 11 -0.061240196400096682
 12 -0.080102056095216673
 13 0.065446829154828204
 14 -0.48009289599186383
 15 0.013070097811313654
 16 -0.061240165117204641
 17 0.080102095524864567
 18 -0.065446902887327296
 19 -0.48009303069809273
 20 0.00036785821828889129
 21 -0.0064097949057393732
 22 0.095528507150176828
 23 -0.043801170639486978
 24 -0.14937472493255635
 25 0.00036785997689633076
 26 -0.0064098043515600561
 27 -0.095528489244950776
 28 0.043801164033901677
 29 -0.14937471603241892
 30 0.025813756658461556
 31 0.025813745906370273
Sym= A
Ene= -0.31207281746191357
Spin= Alpha
Occup= 2
 1 1.4915896864972345e-09
 2 -4.8376439715392123e-09
 3 -0.0048211763958463227
 4 0.03533550519526605
 5 -2.5398158321831826e-09
 6 1.9637862952117303e-08
 7 0.027875641090083603
 8 -0.22962939398804083
 9 1.4710293810627435e-08
 10 -0.018804157269257347
 11 0.094138879680465623
 12 -0.099257626190988532
 13 0.23297425610908962
 14 -0.43992417575183179
 15 0.018804161210427148
 16 -0.094138898172637875
 17 -0.0992575956358525
 18 0.23297423507878331
 19 0.43992402541810077
 20 0.0051860782847043098
 21 -0.028188775208046402
 22 -0.048041904141060056
 23 0.01491470004998925
 24 0.020973661590364217
 25 -0.0051860780652725376
 26 0.028188772670959528
 27 -0.048041934006251862
 28 0.014914713146920867
 29 -0.020973707144390674
 30 -0.033564328855711201
 31 0.033564337096956269
Sym= A
Ene= 0.29041292018692388
Spin= Alpha
Occup= 0
 1 -2.1408432838148035e-11
 2 6.9068328040624163e-11
 3 0.12133747997086493
 4 -0.0014054391144330861
 5 1.274105067775992e-10
 6 -2.9808467150482867e-10
 7 -0.8597533452043653
 8 0.011286368102132896
 9 -9.0691286653948659e-10
 10 -7.9287710987247336e-05
 11 0.0005802147505138452
 12 0.15529711561806039
 13 0.052702568585027518
 14 0.012579905884407758
 15 7.9287664243363955e-05
 16 -0.00058021448966303767
 17 0.15529711560834514
 18 0.052702570020657882
 19 -0.012579905973467051
 20 -0.050084185256771087
 21 0.29506872389675737
 22 -0.22260812370297589
 23 0.030264687611994731
 24 0.32161699972863322
 25 0.050084185339523614
 26 -0.29506872439792775
 27 -0.22260812415352274
 28 0.030264687787514916
 29 -0.32161699991202142
 30 0.12011789064116103
 31 -0.12011789027053539
Sym= A
Ene= 0.31617212491870145
Spin= Alpha
Occup= 0
 1 -0.0082860435051132168
 2 0.026414699290348485
 3 1.8443769178418457e-10
 4 1.1486110233503914e-10
 5 -0.10666713694400734
 6 -0.11691410801148265
 7 -1.3132608184898918e-09
 8 -8.4247751800667038e-10
 9 0.76119102198269728
 10 0.0079573282661428643
 11 -0.046428375716531696
 12 0.014920139098000279
 13 0.31755691452787943
 14 -0.038826523702332909
 15 0.0079573283512595159
 16 -0.046428376197872517
 17 -0.014920138682619209
 18 -0.31755691539259195
 19 -0.038826523313805775
 20 -0.047307542394712215
 21 0.28061117014327719
 22 -0.27957397043045246
 23 0.058951884412805987
 24 0.15218125138085112
 25 -0.047307542276385291
 26 0.28061116946219494
 27 0.27957396964133707
 28 -0.058951884391861373
 29 0.15218125037285535
 30 -0.14860253440117072
 31 -0.1486025342989914
Sym= A
Ene= 0.34661267338852259
Spin= Alpha
Occup= 0
 1 0.04831505852441155
 2 -0.15548751314295395
 3 1.0483868916868876e-10
 4 2.3152175750625973e-10
 5 0.030517258702761608
 6 0.67364421682635134
 7 -7.5360022741833131e-10
 8 -1.6989048497226719e-09
 9 -0.22023883665131652
 10 0.018721295829514518
 11 -0.10005267796549411
 12 0.012390194452302711
 13 0.41435136611422368
 14 0.15506511178361779
 15 0.018721295999691787
 16 -0.10005267892821736
 17 -0.01239019428400167
 18 -0.41435136813586843
 19 0.15506511251447228
 20 0.044052106163269086
 21 -0.25708371374292177
 22 0.22619732590560687
 23 -0.045275492117088714
 24 -0.18234746517016201
 25 0.044052106213695284
 26 -0.25708371402490304
 27 -0.2261973264624843
 28 0.045275492242915216
 29 -0.18234746579752967
 30 0.12855681625267551
 31 0.12855681659086485
Sym= A
Ene= 0.50014325895876233
Spin= Alpha
Occup= 0
 1 8.7013560926809921e-11
 2 -2.8202836359313066e-10
 3 -0.016266119336736037
 4 -0.09238712585996145
 5 -6.3664630350542704e-11
 6 1.1988500296702024e-09
 7 0.12312111459218221
 8 0.68294722108370343
 9 4.574750313422256e-10
 10 0.031814232174212261
 11 -0.18108204473320239
 12 0.01182963476753964
 13 0.44138815850546154
 14 0.15275014332338999
 15 -0.03181423206790028
 16 0.18108204416811416
 17 0.011829634712511375
 18 0.44138815604091047
 19 -0.15275014269949616
 20 -0.019193538326057417
 21 0.12834182388676818
 22 0.095232060381981509
 23 0.11323955109313515
 24 -0.055118119616135441
 25 0.019193538463368926
 26 -0.12834182472521563
 27 0.095232060243263236
 28 0.11323955162897507
 29 0.055118119260896194
 30 0.33129210501724343
 31 -0.33129210395576597
Sym= A
Ene= 0.57175708329332964
Spin= Alpha
Occup= 0
 1 0.011739224200964377
 2 -0.034744340231647332
 3 7.8812675786383907e-11
 4 -2.939151519889439e-10
 5 0.023831645339491933
 6 0.19299830313336488
 7 -6.147805635333745e-10
 8 2.1502277848614111e-09
 9 -0.18161166451701824
 10 -0.0041389023522812544
 11 0.020130400903161136
 12 0.02724568397367633
 13 0.0095882851308046243
 14 -0.0085524269050605527
 15 -0.0041389026313131188
 16 0.020130402453566083
 17 -0.027245684086914919
 18 -0.0095882825813134991
 19 -0.008552428152852995
 20 -0.049404084394921943
 21 0.33067954963644414
 22 0.17968419068038796
 23 0.42724591143845436
 24 -0.060685696222340837
 25 -0.049404084983805739
 26 0.33067955355073797
 27 -0.17968419193082608
 28 -0.42724591635639408
 29 -0.060685696519713207
 30 -0.77407320795642565
 31 -0.77407319986009582
Sym= A
Ene= 0.58383446988467624
Spin= Alpha
Occup= 0
 1 3.9896038314808539e-11
 2 -1.1024695774037034e-10
 3 -0.013245465099668716
 4 0.040895355206119303
 5 1.4433111671348498e-10
 6 7.2974919804743824e-10
 7 0.10397458028514504
 8 -0.29844446481043235
 9 -1.0971082987350059e-09
 10 -0.020609538428468074
 11 0.1139830339563704
 12 0.013180936134803124
 13 -0.17297318798191189
 14 -0.091109757079934295
 15 0.020609538347624825
 16 -0.11398303355269365
 17 0.013180935826110829
 18 -0.17297318741856268
 19 0.091109756771419942
 20 -0.052044680509985952
 21 0.34558034128178666
 22 0.11090796072484828
 23 0.42381175336163945
 24 -0.02589648893260757
 25 0.052044679885084356
 26 -0.3455803371317126
 27 0.11090795876113162
 28 0.42381174826208529
 29 0.025896488378520405
 30 0.71449521139297945
 31 -0.71449522070305449
