[Molden Format]
[Title]
generated by GANSU
[Atoms] (Angs)
C 1 6 -0.0173 1.4248 0.0099
C 2 6 -1.6862 -0.5684 -2.545
C 3 6 -2.574 -3.0112 0.0105
C 4 6 -1.6374 -0.5959 2.5746
C 5 6 1.4181 1.9544 -0.001
C 6 6 -2.5458 -0.0731 -3.7098
C 7 6 -2.3126 -4.5186 -0.0001
C 8 6 -2.4745 -0.1133 3.7609
O 9 8 0.0021 -0.0041 0.002
O 10 8 -2.3072 -0.2103 -1.3088
O 11 8 -1.3279 -2.3116 0.0023
O 12 8 -2.2818 -0.2246 1.3544
Si 13 14 -1.4787 -0.6877 0.0125
H 14 1 -0.5275 1.7763 0.9067
H 15 1 -0.5445 1.7859 -0.8732
H 16 1 -1.5876 -1.6525 -2.6015
H 17 1 -0.6988 -0.1103 -2.6017
H 18 1 -3.1508 -2.7362 -0.8726
H 19 1 -3.1338 -2.7457 0.9073
H 20 1 -0.649 -0.1383 2.6173
H 21 1 -1.5378 -1.6805 2.6175
H 22 1 1.9453 1.5933 0.8821
H 23 1 1.9283 1.6028 -0.8978
H 24 1 1.4033 3.0442 0.005
H 25 1 -2.6444 1.0109 -3.6534
H 26 1 -2.0721 -0.3463 -4.6528
H 27 1 -3.5333 -0.5312 -3.6532
H 28 1 -3.2631 -5.0522 0.0061
H 29 1 -1.7528 -4.7841 -0.8969
H 30 1 -1.7358 -4.7936 0.8829
H 31 1 -1.9829 -0.3964 4.6916
H 32 1 -2.574 0.9713 3.718
H 33 1 -3.4629 -0.5708 3.7182
[GTO]
1 0
 s 3 1.00
    13.0451 0.535328
    3.53051 0.444635
    71.6168 0.154329
 s 3 1.00
    2.94125 -0.0999672
    0.683483 0.399513
    0.22229 0.700115
 p 3 1.00
    0.22229 0.391957
    0.683483 0.607684
    2.94125 0.155916

2 0
 s 3 1.00
    71.6168 0.154329
    13.0451 0.535328
    3.53051 0.444635
 s 3 1.00
    2.94125 -0.0999672
    0.22229 0.700115
    0.683483 0.399513
 p 3 1.00
    0.22229 0.391957
    0.683483 0.607684
    2.94125 0.155916

3 0
 s 3 1.00
    71.6168 0.154329
    13.0451 0.535328
    3.53051 0.444635
 s 3 1.00
    2.94125 -0.0999672
    0.683483 0.399513
    0.22229 0.700115
 p 3 1.00
    2.94125 0.155916
    0.683483 0.607684
    0.22229 0.391957

4 0
 s 3 1.00
    3.53051 0.444635
    13.0451 0.535328
    71.6168 0.154329
 s 3 1.00
    0.683483 0.399513
    2.94125 -0.0999672
    0.22229 0.700115
 p 3 1.00
    0.683483 0.607684
    2.94125 0.155916
    0.22229 0.391957

5 0
 s 3 1.00
    3.53051 0.444635
    13.0451 0.535328
    71.6168 0.154329
 s 3 1.00
    0.22229 0.700115
    0.683483 0.399513
    2.94125 -0.0999672
 p 3 1.00
    2.94125 0.155916
    0.683483 0.607684
    0.22229 0.391957

6 0
 s 3 1.00
    3.53051 0.444635
    13.0451 0.535328
    71.6168 0.154329
 s 3 1.00
    2.94125 -0.0999672
    0.683483 0.399513
    0.22229 0.700115
 p 3 1.00
    2.94125 0.155916
    0.683483 0.607684
    0.22229 0.391957

7 0
 s 3 1.00
    71.6168 0.154329
    13.0451 0.535328
    3.53051 0.444635
 s 3 1.00
    2.94125 -0.0999672
    0.683483 0.399513
    0.22229 0.700115
 p 3 1.00
    0.22229 0.391957
    2.94125 0.155916
    0.683483 0.607684

8 0
 s 3 1.00
    3.53051 0.444635
    13.0451 0.535328
    71.6168 0.154329
 s 3 1.00
    0.683483 0.399513
    2.94125 -0.0999672
    0.22229 0.700115
 p 3 1.00
    2.94125 0.155916
    0.683483 0.607684
    0.22229 0.391957

9 0
 s 3 1.00
    23.8089 0.535328
    130.709 0.154329
    6.44361 0.444635
 s 3 1.00
    5.03315 -0.0999672
    1.1696 0.399513
    0.380389 0.700115
 p 3 1.00
    0.380389 0.391957
    1.1696 0.607684
    5.03315 0.155916

10 0
 s 3 1.00
    6.44361 0.444635
    130.709 0.154329
    23.8089 0.535328
 s 3 1.00
    0.380389 0.700115
    1.1696 0.399513
    5.03315 -0.0999672
 p 3 1.00
    1.1696 0.607684
    0.380389 0.391957
    5.03315 0.155916

11 0
 s 3 1.00
    6.44361 0.444635
    23.8089 0.535328
    130.709 0.154329
 s 3 1.00
    0.380389 0.700115
    1.1696 0.399513
    5.03315 -0.0999672
 p 3 1.00
    5.03315 0.155916
    1.1696 0.607684
    0.380389 0.391957

12 0
 s 3 1.00
    130.709 0.154329
    23.8089 0.535328
    6.44361 0.444635
 s 3 1.00
    0.380389 0.700115
    1.1696 0.399513
    5.03315 -0.0999672
 p 3 1.00
    1.1696 0.607684
    0.380389 0.391957
    5.03315 0.155916

13 0
 s 3 1.00
    407.798 0.154329
    74.2808 0.535328
    20.1033 0.444635
 s 3 1.00
    23.1937 -0.0999672
    5.38971 0.399513
    1.7529 0.700115
 p 3 1.00
    23.1937 0.155916
    5.38971 0.607684
    1.7529 0.391957
 s 3 1.00
    0.161475 0.900398
    1.47874 -0.21962
    0.412565 0.225595
 p 3 1.00
    1.47874 0.0105876
    0.412565 0.595167
    0.161475 0.462001

14 0
 s 3 1.00
    3.42525 0.154329
    0.623914 0.535328
    0.168855 0.444635

15 0
 s 3 1.00
    3.42525 0.154329
    0.623914 0.535328
    0.168855 0.444635

16 0
 s 3 1.00
    0.168855 0.444635
    0.623914 0.535328
    3.42525 0.154329

17 0
 s 3 1.00
    3.42525 0.154329
    0.623914 0.535328
    0.168855 0.444635

18 0
 s 3 1.00
    3.42525 0.154329
    0.623914 0.535328
    0.168855 0.444635

19 0
 s 3 1.00
    0.168855 0.444635
    3.42525 0.154329
    0.623914 0.535328

20 0
 s 3 1.00
    3.42525 0.154329
    0.623914 0.535328
    0.168855 0.444635

21 0
 s 3 1.00
    3.42525 0.154329
    0.623914 0.535328
    0.168855 0.444635

22 0
 s 3 1.00
    0.168855 0.444635
    0.623914 0.535328
    3.42525 0.154329

23 0
 s 3 1.00
    0.623914 0.535328
    0.168855 0.444635
    3.42525 0.154329

24 0
 s 3 1.00
    0.168855 0.444635
    0.623914 0.535328
    3.42525 0.154329

25 0
 s 3 1.00
    0.168855 0.444635
    3.42525 0.154329
    0.623914 0.535328

26 0
 s 3 1.00
    3.42525 0.154329
    0.623914 0.535328
    0.168855 0.444635

27 0
 s 3 1.00
    3.42525 0.154329
    0.623914 0.535328
    0.168855 0.444635

28 0
 s 3 1.00
    0.168855 0.444635
    3.42525 0.154329
    0.623914 0.535328

29 0
 s 3 1.00
    3.42525 0.154329
    0.623914 0.535328
    0.168855 0.444635

30 0
 s 3 1.00
    3.42525 0.154329
    0.623914 0.535328
    0.168855 0.444635

31 0
 s 3 1.00
    3.42525 0.154329
    0.168855 0.444635
    0.623914 0.535328

32 0
 s 3 1.00
    3.42525 0.154329
    0.623914 0.535328
    0.168855 0.444635

33 0
 s 3 1.00
    3.42525 0.154329
    0.623914 0.535328
    0.168855 0.444635

[MO]
Sym= A
Ene= -65.9192
Spin= Alpha
Occup= 2
 1 -2.2887916190152834e-05
 2 0.00010241848770400204
 3 -0.0001166758831824836
 4 -0.00012473010009097249
 5 4.4741429922291571e-07
 6 -2.2894196402103546e-05
 7 0.00010244582859729593
 8 3.5214951480616794e-05
 9 -2.0292422490139151e-05
 10 0.00016591034586420345
 11 -2.2888882747843842e-05
 12 0.00010241080358152193
 13 4.9432893900232261e-05
 14 0.00016349742933300195
 15 4.1271345980615121e-07
 16 -2.2894037706238215e-05
 17 0.00010243806739603221
 18 3.2041266574462998e-05
 19 -1.8502381393184697e-05
 20 -0.00016677589078828005
 21 -3.2367237405844061e-06
 22 3.4731119057006146e-05
 23 -2.1931136359379636e-05
 24 -2.8444645296019241e-06
 25 1.9498092203317685e-07
 26 -3.236535741173686e-06
 27 3.473114653142228e-05
 28 1.5361103818950541e-05
 29 -8.8481471820137866e-06
 30 1.3223515784658445e-05
 31 -3.2364368459075541e-06
 32 3.4736194958569546e-05
 33 -8.5362561331036005e-06
 34 2.0404486768003109e-05
 35 1.8856320850013863e-07
 36 -3.2372027960107553e-06
 37 3.4739436056997552e-05
 38 1.5106748244793967e-05
 39 -8.7035544210071809e-06
 40 -1.3612374402246386e-05
 41 -8.0590463286216925e-05
 42 0.00072246216719813478
 43 -0.00028654942523081669
 44 -0.0001948001753268696
 45 1.6943187142145157e-06
 46 -8.0579990524503472e-05
 47 0.00072237779998733805
 48 0.00013378494345470435
 49 -7.7088426288873834e-05
 50 0.000310154032853174
 51 -8.0588029240548901e-05
 52 0.00072253091253644017
 53 2.489244968199101e-05
 54 0.00034558409426861328
 55 1.6261344139403309e-06
 56 -8.0583139221284482e-05
 57 0.00072241812148756551
 58 0.00012784686179188962
 59 -7.3742868229092855e-05
 60 -0.00031347229822986422
 61 0.99380448582561021
 62 0.019348253547818113
 63 1.6795079606616658e-07
 64 -1.9107267235675443e-07
 65 1.5884888723901664e-07
 66 -0.0039981287495984234
 67 -6.3068164863123508e-08
 68 1.5208392498039407e-07
 69 -7.1222500604229723e-08
 70 5.8220198416686688e-05
 71 5.8203791768323023e-05
 72 5.8226992229846281e-05
 73 5.8198273905485059e-05
 74 5.8214675202415242e-05
 75 5.824680805249892e-05
 76 5.8222594559626954e-05
 77 5.8254322066765348e-05
 78 -1.4861373413824746e-06
 79 -1.4852403526612602e-06
 80 -3.6791451783792067e-06
 81 -1.4867967494484346e-06
 82 -3.6774092497752551e-06
 83 -1.4848666002247184e-06
 84 -3.678743754238287e-06
 85 -1.4861564031640792e-06
 86 -1.4846054929372121e-06
 87 -3.6794944766759115e-06
 88 -1.4887668151900634e-06
 89 -1.4859149264698422e-06
Sym= A
Ene= -18.97751969256749
Spin= Alpha
Occup= 2
 1 -1.1674184333436566e-05
 2 2.6898576287785276e-05
 3 -0.00015983274783131223
 4 3.3370722411535967e-05
 5 4.0720620342361677e-05
 6 2.7257638729180753e-05
 7 -0.00016338705792794768
 8 -1.8850368464531297e-05
 9 9.1433342781920074e-06
 10 -0.00019133622749960248
 11 8.4119175278534277e-06
 12 -0.00014184633706249526
 13 -0.00023269747752562757
 14 7.1484455761304682e-05
 15 4.1707330947991429e-05
 16 0.0005259548559611658
 17 -0.0043492616809194711
 18 0.0017752188166278392
 19 -0.0010211910835871486
 20 0.0027762530413546625
 21 -3.3311441656370761e-06
 22 4.4682625556901083e-05
 23 -2.2591408066047262e-05
 24 -1.090441486382299e-05
 25 -3.4756852416715491e-06
 26 2.3795895178376966e-06
 27 -2.5730840055370009e-05
 28 -1.3905369558398301e-05
 29 8.1666104694553916e-06
 30 -9.4622484244208425e-06
 31 -4.4719066045311305e-06
 32 6.3794083622717128e-05
 33 1.6697213143774505e-06
 34 3.3706423363613988e-05
 35 -3.4643359070344869e-06
 36 -2.6061189701194084e-05
 37 0.00044945433131912384
 38 1.0887796483604567e-05
 39 -6.5714007930477711e-06
 40 -0.00022174146509941784
 41 0.029504949499381036
 42 0.0010974270983754746
 43 -0.00025539129537587642
 44 5.0805270806898681e-05
 45 0.000280965023008589
 46 0.032387545375739804
 47 0.0013973232029189566
 48 -5.4131607169850619e-05
 49 1.7940781309075439e-05
 50 0.0003833290535290607
 51 0.067988545355170238
 52 0.0021167164442432332
 53 -0.00022975839998486242
 54 0.00020354335910215699
 55 0.0002808249194494577
 56 0.99064421752505227
 57 0.026751110262015206
 58 0.0010915509197786939
 59 -0.00064789220840570714
 60 0.00010318159199192159
 61 -0.00018166739094926886
 62 0.0005582417501680953
 63 -0.00020888280113302962
 64 0.00010673881783839182
 65 0.00029568094520132936
 66 -0.004720561124444759
 67 0.0024675143015277139
 68 -0.0012535605555932649
 69 -0.0036586153890053566
 70 -5.2617884988853225e-05
 71 2.6213892663576353e-05
 72 -3.8459681317757527e-05
 73 -3.5237442393797385e-05
 74 4.3731538249869038e-05
 75 -3.5632224789847124e-05
 76 0.00039199976490382954
 77 0.00038771163532772495
 78 -3.4793662338607349e-06
 79 -4.168813436184869e-06
 80 -4.3928014895596401e-06
 81 -9.249018257960007e-08
 82 1.3168568804029538e-06
 83 -7.2552822645036068e-08
 84 -8.8196004621828969e-06
 85 -8.1180821724572313e-06
 86 -7.4002085494725185e-06
 87 -0.00010841092144566866
 88 -9.8415731890722438e-05
 89 -9.8439985280928511e-05
Sym= A
Ene= -18.97667082387791
Spin= Alpha
Occup= 2
 1 5.4683103864516832e-05
 2 -0.00037942391390645528
 3 0.0001193927525197323
 4 0.00031905063709932938
 5 -3.3447338777792575e-06
 6 -1.87823190177066e-05
 7 7.2979840902271244e-05
 8 0.00011857118478283889
 9 -0.00011120275600967994
 10 9.2853245953889972e-05
 11 0.00053027241648823142
 12 -0.004371683291171307
 13 -0.0031404820340869299
 14 -0.001448248172192717
 15 1.9665598343072638e-05
 16 -6.6915387060825427e-05
 17 0.00047687667172639477
 18 -5.6306360374925328e-05
 19 -1.0561373035987463e-05
 20 -0.00034589830580999026
 21 1.6201130716154696e-06
 22 -1.0684991434232078e-05
 23 1.615179534416024e-05
 24 -6.990951053840038e-06
 25 1.937569206246998e-07
 26 -3.7272422029427367e-06
 27 4.8627463806892077e-05
 28 1.6722737182038866e-05
 29 -5.6589494871520752e-06
 30 2.1986876228813518e-05
 31 -2.5480997625405917e-05
 32 0.00044234280006519565
 33 9.8619165252499251e-05
 34 0.00019549460609089687
 35 2.5883559701572132e-07
 36 -9.7460160590568866e-07
 37 2.6841707226655756e-06
 38 1.3918001521465118e-05
 39 -4.0152301317291033e-06
 40 4.1932342083400377e-08
 41 0.076413932732127515
 42 0.0025433055258150578
 43 -0.00015314307774224172
 44 -0.00033680982913216742
 45 -2.828433051383589e-05
 46 0.021662832938561759
 47 0.00082845157770630859
 48 9.8479999844069846e-05
 49 -0.00036268511087386848
 50 3.057571833745742e-05
 51 0.98822726615488909
 52 0.026675004035270015
 53 -0.0011355163064174301
 54 0.00050612075399719117
 55 -2.7706060643468608e-05
 56 -0.070901306462305261
 57 -0.0016222591376969522
 58 -1.4039062175792134e-05
 59 -0.00029724222898704837
 60 -8.2666629182937722e-05
 61 -0.00016451744268237056
 62 0.0005055505274798518
 63 0.00010781094320706749
 64 -0.00038390489586694255
 65 -3.1695101784521093e-05
 66 -0.004275168784398287
 67 -0.0011932705257437979
 68 0.0046705909411195838
 69 0.00038983009024374084
 70 -1.2461542890432175e-05
 71 -1.9800927039669557e-05
 72 -4.844561681554571e-05
 73 2.702274456193121e-05
 74 0.00038819313973907399
 75 0.00039322003832913723
 76 -1.4097605979343812e-05
 77 -8.8949070094781127e-05
 78 -4.3392769463337819e-06
 79 -4.2802581310582557e-06
 80 -3.2821368948875242e-06
 81 -3.8600354746780524e-06
 82 -4.2919814276366531e-06
 83 -3.2152585655374342e-06
 84 -0.00010786079438635243
 85 -9.8216912079566519e-05
 86 -9.7713731595480273e-05
 87 6.2908560132885737e-06
 88 5.6439851315643874e-06
 89 6.2942082548235018e-06
Sym= A
Ene= -18.975419053584655
Spin= Alpha
Occup= 2
 1 -0.00052539917362226561
 2 0.0043453639564053573
 3 0.00035185809697325059
 4 -0.0034216944120914979
 5 -1.686021006460762e-05
 6 2.5721336675446906e-06
 7 4.6957512125685153e-05
 8 -0.00017903783598426036
 9 5.2476278111760554e-05
 10 -5.5441550634250635e-06
 11 3.0244325034964564e-05
 12 -0.0003174513636126432
 13 -0.00027750181235620518
 14 2.7443548400546655e-05
 15 5.8030693034740383e-06
 16 3.8247240489854886e-05
 17 -0.00025249880909208042
 18 -5.0482193414807759e-05
 19 -2.1278072544901952e-05
 20 0.00019457534113283671
 21 2.6227947410992467e-05
 22 -0.00045079380749677025
 23 0.00012466408657086324
 24 0.00018441433034809736
 25 -9.6838853910498862e-07
 26 3.7117544134563304e-06
 27 -5.123625207872736e-05
 28 -1.061400135233744e-05
 29 1.0878439946026774e-05
 30 -2.3659729429388237e-05
 31 -5.5281283583250491e-06
 32 7.9048769295319917e-05
 33 1.5826372038797638e-06
 34 4.0428850124890588e-05
 35 -1.2154553316291093e-07
 36 1.6750555809373809e-06
 37 -1.7197516786505687e-05
 38 -8.376629114764182e-06
 39 9.5970059562943175e-06
 40 7.3897402153672265e-06
 41 -0.98951724130706742
 42 -0.026644695692287831
 43 0.001025948201998078
 44 -0.00075437374687691656
 45 1.7012759542957493e-05
 46 -0.043114800513040404
 47 -0.0013890273366476565
 48 -0.00037622112689452791
 49 -0.00014187309123590925
 50 -3.553651938126527e-05
 51 0.079427696675407833
 52 0.0016381967105923649
 53 -0.00038716236560069455
 54 -0.00023319070376366348
 55 2.1482868606068411e-05
 56 0.025519692751243626
 57 0.00042827490876644271
 58 -0.00029261619947675542
 59 -0.00019073394632807141
 60 7.573560549698799e-05
 61 0.00015067533240863739
 62 -0.00046293337440379736
 63 -0.0003621895730139044
 64 -0.00016915837562946843
 65 2.3790681783991291e-05
 66 0.0039156480741334215
 67 0.0043693151047991203
 68 0.002159839816827156
 69 -0.00029235387001720701
 70 -0.00039762907542258786
 71 -0.00039439606029205486
 72 -4.3098363569190717e-05
 73 4.489219807364498e-05
 74 8.2454680745497387e-05
 75 7.6882547644490737e-05
 76 7.4804847689223609e-05
 77 -1.2442007796352963e-05
 78 9.8666044649862875e-05
 79 9.8599702521644451e-05
 80 0.00010855281128808746
 81 4.9491285927534715e-06
 82 6.2023737932897939e-06
 83 5.7613262115867318e-06
 84 -1.3691802323502527e-05
 85 -1.1196247120351411e-05
 86 -1.105911317950312e-05
 87 -1.653496420831959e-06
 88 -2.0995885355116056e-06
 89 -1.2701072113443292e-06
Sym= A
Ene= -18.974330034856777
Spin= Alpha
Occup= 2
 1 5.1190595202430057e-05
 2 -0.00035135084715511364
 3 0.00013770919539514946
 4 0.00022694339233456676
 5 4.1450933848465405e-05
 6 -0.00053064096008787072
 7 0.0043812143463774654
 8 -0.0017166043738810902
 9 0.00098829769689778922
 10 0.0028417286972000104
 11 3.8119473360834151e-05
 12 -0.00024169754146978578
 13 -4.6772381546635099e-05
 14 -0.00020043689892397198
 15 4.1331917119049847e-05
 16 1.3816580316414506e-06
 17 -8.5160558712630649e-05
 18 0.00014021563798364325
 19 -7.9501287759313539e-05
 20 -3.9846120312522488e-05
 21 1.5052114567577871e-06
 22 -1.2538683669654191e-05
 23 1.4176622531726384e-05
 24 -2.7626727272189806e-06
 25 -4.0156333492011609e-06
 26 2.5868513784033659e-05
 27 -0.00044763978068996358
 28 -1.4107683147194408e-05
 29 8.3261052312068114e-06
 30 -0.00022053629910658587
 31 2.2546267395761544e-06
 32 -2.5058164450895823e-05
 33 7.1699584833476319e-06
 34 -1.6565993810397879e-05
 35 -4.1185704716580057e-06
 36 -4.460424333508106e-06
 37 5.9412808336427572e-05
 38 1.6441355164579594e-05
 39 -9.6126914165546326e-06
 40 -2.6208842346994952e-05
 41 0.045706155042697427
 42 0.00099076784335314365
 43 0.00016198048876285266
 44 -3.0452947495927616e-05
 45 0.00029485420604332665
 46 -0.992252793462719
 47 -0.0267218165813536
 48 -0.0010667641646642772
 49 0.00063292931817791409
 50 0.00017016775398258273
 51 0.020421873721084217
 52 0.00032107587477464371
 53 0.00014390909381178691
 54 -0.00013250660961464797
 55 0.00029474243649874114
 56 0.029820679663433936
 57 0.00032230967957397826
 58 0.00015816472880741592
 59 -8.2635013425630058e-05
 60 0.00038018639508143824
 61 0.00014527480896910381
 62 -0.00044644770341536701
 63 0.00023552394493821536
 64 -0.00012657909963351068
 65 0.00030966638024587764
 66 0.0037745151932719141
 67 -0.0027840316378938343
 68 0.0014915855821190337
 69 -0.0038345637313004057
 70 -4.7201532949318789e-06
 71 7.9437419765387955e-05
 72 -0.00039576043781570138
 73 -0.00039837485841492704
 74 6.8351802210179642e-05
 75 -1.5679898414478161e-05
 76 5.7175046580224623e-05
 77 5.9177384735318514e-05
 78 -3.0655837865114984e-06
 79 -3.806876808421853e-06
 80 -3.4682081623885584e-06
 81 9.859626821547422e-05
 82 0.00010871531418349613
 83 9.8711398294653956e-05
 84 -5.885118076554953e-07
 85 -1.2464424445778138e-06
 86 -4.3635618099699652e-07
 87 -8.3784415010939459e-06
 88 -6.2703034040928289e-06
 89 -6.2966937669891149e-06
Sym= A
Ene= -11.861569988683659
Spin= Alpha
Occup= 2
 1 -2.2375198131527968e-07
 2 1.8904330338357943e-06
 3 -1.7072092450183625e-06
 4 -2.0286366604402851e-06
 5 -6.0609495617487648e-09
 6 -9.4448555978060285e-07
 7 1.5167960561213934e-05
 8 2.7990285300431668e-07
 9 -1.1366995963656644e-05
 10 -3.5976251265632836e-06
 11 -0.00029099931968630364
 12 0.0050067730792098999
 13 0.00054641751861569249
 14 -0.0031702645713590468
 15 -2.2329836832358646e-05
 16 -9.6527932321421374e-07
 17 1.5273367182317992e-05
 18 2.52215750310935e-07
 19 -1.1430278618126299e-05
 20 3.4501622191890208e-06
 21 9.5043910654977548e-06
 22 8.0743764036019107e-07
 23 -2.9017354686777626e-07
 24 -1.2074888480220518e-07
 25 3.6507390903204688e-09
 26 -1.6980031013511437e-05
 27 -2.2781750500046908e-06
 28 -3.7130693373519093e-07
 29 6.5778436589105461e-08
 30 -3.44020835717934e-07
 31 -0.99219504172778861
 32 -0.037338727667535876
 33 -0.00018559216452147158
 34 0.0024953952549509224
 35 2.1455850909902022e-05
 36 -2.1378540799124064e-05
 37 -2.4949705114480166e-06
 38 -3.5059265216672473e-07
 39 8.0821105825641742e-08
 40 3.8696130953225168e-07
 41 -2.2666387107844784e-06
 42 1.6681750707232778e-05
 43 -9.0482328683497783e-06
 44 -2.414511412019382e-06
 45 7.2745731925840322e-08
 46 1.7029788981622544e-06
 47 -1.5151206140774568e-05
 48 -2.8400812828830795e-06
 49 2.8246059246504653e-06
 50 -8.5536704469332114e-06
 51 1.1648385683116426e-05
 52 -0.00023510516386185835
 53 8.2426110164401771e-05
 54 2.4303805942289096e-05
 55 -7.7965360952167688e-07
 56 1.7013167190930236e-06
 57 -1.5155833136479215e-05
 58 -2.6871270029569698e-06
 59 2.7458957901244516e-06
 60 8.7207613357933095e-06
 61 2.7963025538292932e-06
 62 -8.1117029444310359e-06
 63 7.4918420968111512e-06
 64 5.445010186088785e-06
 65 -3.2870164931163345e-08
 66 7.6215166077830621e-05
 67 -7.6539191403321951e-05
 68 -6.7439612315471265e-05
 69 3.0940391925074492e-07
 70 1.0348757530812401e-06
 71 1.0210696074859498e-06
 72 -3.9673309499517978e-05
 73 1.4465407221313386e-06
 74 -0.00011536216537577405
 75 -0.00011484249832606006
 76 1.3905727568448098e-06
 77 -3.9605659123268942e-05
 78 -4.4265145712512915e-08
 79 -4.2782497186783558e-08
 80 -9.495679668848345e-08
 81 5.4940706596316338e-07
 82 6.8951525741514249e-07
 83 1.0500103095524431e-06
 84 0.0079461460013388972
 85 0.0077619224454822319
 86 0.0077568273807417836
 87 7.1606637615631423e-07
 88 5.8511532156870142e-07
 89 1.1061955112984843e-06
Sym= A
Ene= -11.859137239697249
Spin= Alpha
Occup= 2
 1 -9.6099239641258693e-07
 2 1.5394763771245222e-05
 3 -3.16408714836431e-06
 4 6.0105102584128354e-06
 5 9.7673723948727288e-06
 6 -2.0851169323966851e-07
 7 1.593734501655667e-06
 8 5.4570107398120614e-07
 9 -3.0439336801014918e-07
 10 2.7543962679588713e-06
 11 -9.5200303700649945e-07
 12 1.5076439375472155e-05
 13 -6.8010172129649119e-06
 14 -1.6209539995173434e-08
 15 9.8780540261272974e-06
 16 -0.00029061664391095168
 17 0.0050060805334526176
 18 -0.0017581692944089809
 19 0.0010127918769588207
 20 0.0024965583572083123
 21 -5.6623866143582424e-05
 22 -3.793056327972054e-06
 23 3.9870479803564932e-07
 24 9.7875927298627629e-08
 25 1.2242382507249134e-07
 26 7.0166958740402259e-05
 27 3.087295460904644e-06
 28 9.0123376996534732e-08
 29 -5.189588838551137e-08
 30 1.2074944979356575e-07
 31 2.1682213407615039e-05
 32 -8.7209003857732119e-07
 33 1.2361261175664138e-07
 34 -6.1290944423696408e-07
 35 9.8321935831126728e-08
 36 -0.99219335063160352
 37 -0.03734692233088819
 38 0.0012022561701301217
 39 -0.00069148342014507239
 40 -0.002087486940547834
 41 1.7009841246321692e-06
 42 -1.5158207643721717e-05
 43 7.5789534973284861e-06
 44 5.5851331890575916e-06
 45 -1.0627420648238731e-06
 46 -2.2633086476361888e-06
 47 1.668723158975744e-05
 48 5.8150702235180823e-06
 49 -3.3557507623930462e-06
 50 6.5305099666263033e-06
 51 1.7045706171189776e-06
 52 -1.5164873545300622e-05
 53 -1.0645159839601934e-06
 54 -9.405801640463697e-06
 55 -1.0891867713027248e-06
 56 1.1590251869747778e-05
 57 -0.00023487246332494984
 58 -5.1943849110449271e-05
 59 2.9989288731170968e-05
 60 -6.1462326608601969e-05
 61 2.7949336907522395e-06
 62 -8.1057555416417655e-06
 63 -3.3547416942498435e-06
 64 1.923053319054709e-06
 65 -8.4183244897723455e-06
 66 7.6224730431916063e-05
 67 2.9250562023475423e-05
 68 -1.6768812150728114e-05
 69 9.6316791277442811e-05
 70 -3.9694723006857105e-05
 71 1.4461722313972163e-06
 72 1.0475281961738539e-06
 73 1.0265421583094388e-06
 74 1.4267418853418852e-06
 75 -3.9682031072720728e-05
 76 -0.00011575508248249998
 77 -0.00011455268068208787
 78 1.3694405417837189e-06
 79 8.630819184846318e-07
 80 1.0035759453348598e-06
 81 -5.1778911097069757e-07
 82 -5.7981618029699905e-07
 83 -5.1773337905194619e-07
 84 3.7366536952408143e-07
 85 2.4494308098105105e-07
 86 7.6912909013861582e-07
 87 0.0079491339115370149
 88 0.0077609414005500128
 89 0.0077623843412291584
Sym= A
Ene= -11.858687398709435
Spin= Alpha
Occup= 2
 1 9.8801990817828404e-07
 2 -1.5773329164646078e-05
 3 3.1712124677284473e-06
 4 -6.2274263366035073e-06
 5 9.7470001723420906e-06
 6 0.00029088864434923824
 7 -0.0050050074245200794
 8 0.0018054693983386733
 9 -0.0010386560170270887
 10 0.0024507053463298277
 11 9.4404068052988788e-07
 12 -1.5065450441519352e-05
 13 7.0488360816602318e-06
 14 -6.0637391885559756e-08
 15 9.6538890698693515e-06
 16 2.4915080724450892e-07
 17 -2.3040930894063174e-06
 18 -2.4560125701903906e-07
 19 1.3131682813680828e-07
 20 2.4119354376771735e-06
 21 0.00011915291502248149
 22 6.1402314356588424e-06
 23 -2.5132044693341721e-07
 24 -2.7528181240655039e-08
 25 1.1320650614779649e-07
 26 0.99219428224845263
 27 0.037341539409576553
 28 -0.0012452830053734393
 29 0.00070875947130439308
 30 -0.0020571148011889178
 31 -1.7270951952006185e-05
 32 1.0076633592996102e-06
 33 -1.2924251145081414e-07
 34 5.7860107041430618e-07
 35 1.5502852104721572e-07
 36 7.0254535701762892e-05
 37 2.1972685859640183e-06
 38 -2.585196296838324e-07
 39 1.4951900031937751e-07
 40 4.1801295330264878e-07
 41 -1.6988411996982713e-06
 42 1.5156803390092832e-05
 43 -7.6199773169207657e-06
 44 -5.5590593791377834e-06
 45 -9.6208380661686147e-07
 46 -1.1605849772551818e-05
 47 0.00023492494764606035
 48 5.0730810571133648e-05
 49 -2.9393639746785235e-05
 50 -6.2832862905571972e-05
 51 -1.7039998765751541e-06
 52 1.5135927752351268e-05
 53 1.0027676930861758e-06
 54 9.3952877296965723e-06
 55 -1.0296458023494491e-06
 56 2.2617234961581897e-06
 57 -1.6654832765725437e-05
 58 -5.6780190784834225e-06
 59 3.2811752677804902e-06
 60 6.6823634807840461e-06
 61 -2.794325359946502e-06
 62 8.1043770570777491e-06
 63 3.1940049859288991e-06
 64 -1.8314982276774654e-06
 65 -8.4990198159659012e-06
 66 -7.6203782649104557e-05
 67 -2.740985503137837e-05
 68 1.5722922512147425e-05
 69 9.6992197856953676e-05
 70 -1.3646920191693723e-06
 71 3.9680305282096633e-05
 72 0.00011456539301405966
 73 0.00011562704714079234
 74 3.9860537353822261e-05
 75 -1.5045187701539678e-06
 76 -1.0098921894692054e-06
 77 -1.021996539698692e-06
 78 -1.3460530328198203e-06
 79 -1.8618101962894308e-06
 80 -1.5020462020979001e-06
 81 -0.0077580941192259669
 82 -0.0079471643706380286
 83 -0.0077634590703143953
 84 -4.12710877820517e-07
 85 -7.7342204306549756e-07
 86 -2.9474569800351876e-07
 87 -5.4442797784752325e-07
 88 -5.8085078211243155e-07
 89 -5.8032567140411055e-07
Sym= A
Ene= -11.858243553647299
Spin= Alpha
Occup= 2
 1 0.00029015064686640645
 2 -0.0050053768574819229
 3 -0.0030170284734071622
 4 -0.0011169180153285745
 5 2.2617980650089907e-05
 6 9.3195417071360706e-07
 7 -1.4628274280387768e-05
 8 -1.0235680519135175e-05
 9 -5.3803841390524232e-06
 10 3.2752633275890804e-06
 11 2.3050629992701341e-07
 12 -1.9910476279696335e-06
 13 -9.0770070821259429e-07
 14 -2.4344224315220976e-06
 15 -2.6502690019510103e-08
 16 9.3013776147537794e-07
 17 -1.4865677663310635e-05
 18 -1.022854981781611e-05
 19 -5.3992335622883092e-06
 20 -3.3193870404097669e-06
 21 0.99219505771532424
 22 0.037338320464421627
 23 0.0022515166308955145
 24 0.0010904652286187191
 25 -5.2414561615996716e-06
 26 -0.00011944267476634161
 27 -2.8136134930434877e-06
 28 4.1289011106215053e-07
 29 -3.9191464194785604e-07
 30 6.6342746540851157e-07
 31 9.6031959767799103e-06
 32 -8.7268402430372266e-08
 33 4.2787708801256883e-08
 34 -3.5872672452380376e-07
 35 7.7763067193807687e-09
 36 -5.6927870030891107e-05
 37 -4.7721751676676797e-07
 38 3.3264545962839791e-07
 39 -3.4682736021689464e-07
 40 -5.2290864844742751e-07
 41 -1.1597040983438093e-05
 42 0.00023471697458850009
 43 -2.0320503133591598e-05
 44 8.35717439951861e-05
 45 9.6999659298148837e-07
 46 -1.7030172813170137e-06
 47 1.5148437327396223e-05
 48 3.8874291408498202e-06
 49 -1.0453855528986544e-06
 50 8.6467169841386724e-06
 51 2.2630695982171081e-06
 52 -1.6682701310764714e-05
 53 2.4492359280270522e-06
 54 -9.0529370261719498e-06
 55 -7.8930573540119327e-08
 56 -1.7063666274568293e-06
 57 1.514429328872464e-05
 58 3.7630690072012613e-06
 59 -9.3496300285697287e-07
 60 -8.6739834432243592e-06
 61 -2.7993384075386428e-06
 62 8.1227931937188173e-06
 63 9.5874025727642777e-07
 64 9.2228377283664151e-06
 65 3.5635501385623163e-08
 66 -7.6246455895707688e-05
 67 -1.9970964913199584e-05
 68 -0.00010013417696808904
 69 -3.300118610234778e-07
 70 0.00011458075605136025
 71 0.00011568254567427081
 72 -1.4686983916611359e-06
 73 3.9809677002418628e-05
 74 -1.0195940861608597e-06
 75 -1.0465607293650674e-06
 76 3.983359532296271e-05
 77 -1.5198407248454771e-06
 78 -0.0077625763952689428
 79 -0.0077546865920123656
 80 -0.0079474856200236216
 81 7.8780237212931597e-09
 82 4.1114035297548276e-07
 83 5.0515225539411116e-07
 84 -5.9111612467797089e-08
 85 -9.9288040688307001e-08
 86 -1.1114751578786131e-07
 87 -9.9287783764342073e-08
 88 -4.7096461308704093e-07
 89 2.3978280131544175e-08
Sym= A
Ene= -9.4685173479223543
Spin= Alpha
Occup= 2
 1 -0.0010194994535651794
 2 -7.1847413132537829e-05
 3 2.0078187347499114e-05
 4 1.6282283752458868e-05
 5 -6.0674240837408206e-09
 6 0.0029985247389010135
 7 0.0002074377058149605
 8 -4.121679049412573e-05
 9 -3.8398182293915817e-05
 10 1.9066930845638301e-05
 11 0.98962735301544802
 12 0.047327241128188924
 13 -0.0019387742938776198
 14 -0.005112438450405426
 15 1.1361257591020452e-05
 16 0.0077806980874133135
 17 0.00043690967783403416
 18 -4.5460303126629688e-05
 19 -3.6651447631150197e-05
 20 7.0693301006464544e-06
 21 -2.2729422098105966e-07
 22 2.8552702359901351e-06
 23 -2.0893035789651984e-06
 24 -2.7063359917455021e-07
 25 -2.2463944570167699e-08
 26 6.2023309454142489e-06
 27 -5.3833747864814033e-05
 28 2.1489056148379355e-06
 29 1.1635408156550495e-05
 30 -1.3497087975088955e-05
 31 0.0010527260074540993
 32 -0.0093125652563737712
 33 0.001323329053172605
 34 -0.0060989101193820762
 35 -4.9867369055334343e-05
 36 1.135472565419557e-05
 37 -9.9139538236446136e-05
 38 -1.4872920309164641e-05
 39 2.157870449846793e-05
 40 3.6359303244824354e-05
 41 1.6461516013822899e-05
 42 -0.0001266305889905801
 43 7.9214707648930872e-05
 44 9.0106778770352324e-06
 45 -1.1623445976853593e-07
 46 -3.3012169874510375e-05
 47 0.00020975951885683392
 48 -2.3529232820576584e-05
 49 -0.00010842649595980366
 50 0.00010547443070449637
 51 0.00056358990135447259
 52 -0.0050767700502143036
 53 0.0020947208122868519
 54 0.0017465541040568777
 55 -1.0976472276202291e-05
 56 -3.0423067116873447e-05
 57 0.00018624328852769249
 58 -2.9237148171209451e-05
 59 -0.00010492974669593487
 60 -0.00011822169577262976
 61 -3.9088884655861074e-05
 62 0.00014177985492078954
 63 -6.4643775186169538e-05
 64 -8.8726332924141913e-05
 65 7.7352161088398574e-07
 66 -0.00077017863397358223
 67 0.00059993215414009225
 68 0.00081223204029370866
 69 -7.2145554319042485e-06
 70 -1.7553537259511197e-07
 71 -4.3277294021758302e-07
 72 -7.7470190937378693e-06
 73 -1.8639810189046588e-05