[Molden Format]
[Title]
generated by GANSU
[Atoms] (Angs)
O 1 8 -0.0162 1.3423 0.0094
C 2 6 0.0021 -0.0041 0.002
C 3 6 1.3367 1.8086 -0.001
O 4 8 -0.985 -0.7154 0.007
C 5 6 1.379 -0.4842 -0.0137
C 6 6 2.2103 0.576 -0.016
C 7 6 1.5931 2.6496 -1.2532
O 8 8 1.7623 -1.7919 -0.0244
O 9 8 3.5606 0.5433 -0.029
O 10 8 1.4429 1.8316 -2.4153
C 11 6 0.5886 3.8025 -1.3077
O 12 8 0.9003 4.6539 -2.4122
H 13 1 1.5364 2.3982 0.8938
H 14 1 2.6058 3.0513 -1.22
H 15 1 1.0252 -2.4179 -0.0211
H 16 1 3.9324 -0.3493 -0.0374
H 17 1 0.5638 1.44 -2.5096
H 18 1 -0.4177 3.4021 -1.4303
H 19 1 0.6417 4.3747 -0.3815
H 20 1 0.3029 5.4082 -2.5082
[GTO]
1 0
 s 3 1.00
    23.8089 0.535328
    6.44361 0.444635
    130.709 0.154329
 s 3 1.00
    5.03315 -0.0999672
    1.1696 0.399513
    0.380389 0.700115
 p 3 1.00
    0.380389 0.391957
    1.1696 0.607684
    5.03315 0.155916

2 0
 s 3 1.00
    71.6168 0.154329
    13.0451 0.535328
    3.53051 0.444635
 s 3 1.00
    2.94125 -0.0999672
    0.22229 0.700115
    0.683483 0.399513
 p 3 1.00
    0.22229 0.391957
    0.683483 0.607684
    2.94125 0.155916

3 0
 s 3 1.00
    71.6168 0.154329
    13.0451 0.535328
    3.53051 0.444635
 s 3 1.00
    2.94125 -0.0999672
    0.683483 0.399513
    0.22229 0.700115
 p 3 1.00
    0.22229 0.391957
    0.683483 0.607684
    2.94125 0.155916

4 0
 s 3 1.00
    6.44361 0.444635
    23.8089 0.535328
    130.709 0.154329
 s 3 1.00
    0.380389 0.700115
    5.03315 -0.0999672
    1.1696 0.399513
 p 3 1.00
    0.380389 0.391957
    1.1696 0.607684
    5.03315 0.155916

5 0
 s 3 1.00
    3.53051 0.444635
    13.0451 0.535328
    71.6168 0.154329
 s 3 1.00
    2.94125 -0.0999672
    0.683483 0.399513
    0.22229 0.700115
 p 3 1.00
    0.22229 0.391957
    0.683483 0.607684
    2.94125 0.155916

6 0
 s 3 1.00
    71.6168 0.154329
    13.0451 0.535328
    3.53051 0.444635
 s 3 1.00
    0.22229 0.700115
    0.683483 0.399513
    2.94125 -0.0999672
 p 3 1.00
    2.94125 0.155916
    0.683483 0.607684
    0.22229 0.391957

7 0
 s 3 1.00
    3.53051 0.444635
    13.0451 0.535328
    71.6168 0.154329
 s 3 1.00
    2.94125 -0.0999672
    0.683483 0.399513
    0.22229 0.700115
 p 3 1.00
    0.22229 0.391957
    0.683483 0.607684
    2.94125 0.155916

8 0
 s 3 1.00
    130.709 0.154329
    23.8089 0.535328
    6.44361 0.444635
 s 3 1.00
    1.1696 0.399513
    0.380389 0.700115
    5.03315 -0.0999672
 p 3 1.00
    1.1696 0.607684
    0.380389 0.391957
    5.03315 0.155916

9 0
 s 3 1.00
    130.709 0.154329
    23.8089 0.535328
    6.44361 0.444635
 s 3 1.00
    5.03315 -0.0999672
    1.1696 0.399513
    0.380389 0.700115
 p 3 1.00
    1.1696 0.607684
    0.380389 0.391957
    5.03315 0.155916

10 0
 s 3 1.00
    6.44361 0.444635
    130.709 0.154329
    23.8089 0.535328
 s 3 1.00
    5.03315 -0.0999672
    1.1696 0.399513
    0.380389 0.700115
 p 3 1.00
    5.03315 0.155916
    1.1696 0.607684
    0.380389 0.391957

11 0
 s 3 1.00
    71.6168 0.154329
    13.0451 0.535328
    3.53051 0.444635
 s 3 1.00
    0.22229 0.700115
    2.94125 -0.0999672
    0.683483 0.399513
 p 3 1.00
    0.22229 0.391957
    0.683483 0.607684
    2.94125 0.155916

12 0
 s 3 1.00
    6.44361 0.444635
    23.8089 0.535328
    130.709 0.154329
 s 3 1.00
    5.03315 -0.0999672
    1.1696 0.399513
    0.380389 0.700115
 p 3 1.00
    5.03315 0.155916
    1.1696 0.607684
    0.380389 0.391957

13 0
 s 3 1.00
    0.168855 0.444635
    0.623914 0.535328
    3.42525 0.154329

14 0
 s 3 1.00
    0.623914 0.535328
    0.168855 0.444635
    3.42525 0.154329

15 0
 s 3 1.00
    0.168855 0.444635
    0.623914 0.535328
    3.42525 0.154329

16 0
 s 3 1.00
    0.168855 0.444635
    0.623914 0.535328
    3.42525 0.154329

17 0
 s 3 1.00
    3.42525 0.154329
    0.168855 0.444635
    0.623914 0.535328

18 0
 s 3 1.00
    0.623914 0.535328
    0.168855 0.444635
    3.42525 0.154329

19 0
 s 3 1.00
    3.42525 0.154329
    0.623914 0.535328
    0.168855 0.444635

20 0
 s 3 1.00
    3.42525 0.154329
    0.623914 0.535328
    0.168855 0.444635

[MO]
Sym= A
Ene= -20.3348
Spin= Alpha
Occup= 2
 1 -0.99409889361187864
 2 -0.026466646892530893
 3 -0.002290019043759986
 4 0.0021791199704357667
 5 4.7179935061619988e-05
 6 -0.00052644453961830234
 7 0.0051162058334066271
 8 2.3861929359953599e-05
 9 0.0041588296123227508
 10 2.3065684413687247e-05
 11 -0.00052884585838987135
 12 0.0043249322304493992
 13 -0.0032363488070688423
 14 -0.0011711484424245452
 15 7.3705180500390974e-06
 16 -0.00032413179466908294
 17 -0.00013557511712534911
 18 0.00016470491064712531
 19 -0.00033935161742522368
 20 -3.4838839757965132e-06
 21 2.3474975441179977e-05
 22 -0.00034944591484744811
 23 0.00016527624223439119
 24 -0.00039090400609972237
 25 -3.245642819165763e-06
 26 2.4889337254550836e-05
 27 -0.0003094373237162479
 28 0.0003767937389230723
 29 -0.00010887758988854801
 30 -8.118253920943834e-07
 31 9.9374611434632418e-06
 32 -0.00025630824581130817
 33 0.00015474152910614422
 34 8.4331824112308766e-05
 35 -7.9554637692206648e-05
 36 -0.0002604822221179328
 37 -9.1474458488949306e-05
 38 -6.7227769261464856e-06
 39 -2.8444093973074847e-05
 40 -1.5288481097417133e-07
 41 -0.00046647293634204025
 42 -7.0985475624686309e-05
 43 3.3504640201529115e-05
 44 2.9188340513728541e-05
 45 1.1800967873601756e-07
 46 -0.00021719391825754213
 47 -9.3104449213869331e-05
 48 3.4934310233495497e-05
 49 3.5082645503503596e-05
 50 -1.7109071966778851e-05
 51 1.1544804844386934e-05
 52 -0.00010560062811388639
 53 5.884294157910714e-05
 54 -1.9758379975995041e-05
 55 4.6358366239435296e-06
 56 2.3185651301582926e-05
 57 1.4301215149944827e-05
 58 -4.0791679706832603e-06
 59 -1.4905637465950205e-06
 60 8.6801654274727778e-06
 61 -0.00023945315287484661
 62 6.7618962125950283e-05
 63 6.2523425160932594e-05
 64 2.5021487883997162e-06
 65 0.00014294257387549884
 66 0.00025175641618000756
 67 8.5025629566028507e-06
 68 -4.4699281236797183e-06
Sym= A
Ene= -20.322475390410911
Spin= Alpha
Occup= 2
 1 0.00047646141630842097
 2 -5.150321234500925e-05
 3 -5.7285115718430299e-06
 4 -2.1749122027439095e-05
 5 7.6854308835033617e-07
 6 -2.6005713030241573e-06
 7 -5.4561997324117234e-05
 8 7.1776814966131863e-06
 9 8.8508447737409594e-05
 10 2.7838538712546441e-07
 11 1.0969935666281863e-05
 12 -1.7631745530933586e-05
 13 -0.00026352552380405105
 14 -0.00016690312212096475
 15 -1.3499941824804927e-05
 16 4.3024208850619755e-05
 17 3.3083400048631965e-05
 18 1.579816719023304e-05
 19 3.6240758673374007e-06
 20 -1.1430358597803135e-07
 21 4.0350499862700472e-05
 22 -0.0002244045161222466
 23 -0.00049019581128540227
 24 0.0002809312469357287
 25 6.5207045016245574e-06
 26 -0.00049840349419360414
 27 0.0047634347223141429
 28 0.0041544566484994355
 29 -0.00022062586815687734
 30 -4.1733284996754239e-05
 31 9.9864093018185891e-06
 32 -3.7803280227509048e-05
 33 -4.2237482205016025e-05
 34 3.807452113396316e-05
 35 2.8475236420102273e-05
 36 -7.3298885009466172e-05
 37 7.5097228890539866e-05
 38 -0.00011082091153162121
 39 4.335443587097712e-05
 40 1.2472432019301489e-06
 41 -0.99408488162088937
 42 -0.026782219777768873
 43 0.0019719187046936121
 44 0.0023648012988918693
 45 -9.3292636460020619e-06
 46 -2.0180873529074771e-05
 47 6.8285650554572412e-06
 48 -8.8744793762148542e-06
 49 1.5663396134697706e-05
 50 -2.1068018698071908e-06
 51 1.1500475768174594e-06
 52 -1.3565989421233146e-05
 53 -5.4404661740501022e-06
 54 5.7700233226368387e-06
 55 -1.8577476181206969e-06
 56 9.6929558610295437e-08
 57 1.8906258409995182e-07
 58 -2.070503862301341e-07
 59 -3.1911728186795503e-07
 60 -8.2277306692166196e-08
 61 2.655458752606147e-05
 62 6.2381090542231723e-05
 63 -2.884284238848173e-05
 64 0.0059082906469413443
 65 -6.9080023808573612e-06
 66 -1.4301496287741789e-06
 67 2.2001497505806959e-06
 68 -1.8704316516042789e-07
Sym= A
Ene= -20.301457272376449
Spin= Alpha
Occup= 2
 1 -0.00027633169576087892
 2 9.2270137883373321e-05
 3 -1.7493995134679023e-05
 4 -3.5216802035134293e-05
 5 1.1052847587568818e-07
 6 -3.6842974572240655e-05
 7 0.00023039097035367027
 8 -0.0001189595975095159
 9 -0.00050082368945655441
 10 -1.5097639529962294e-06
 11 5.744561799345127e-06
 12 5.7595492801466863e-06
 13 5.8177810222875305e-05
 14 4.0230189957461693e-05
 15 1.2907759236486117e-06
 16 4.5667786099323759e-05
 17 -0.00011463525193037075
 18 -3.4889031641075798e-05
 19 -0.00011902612262007159
 20 -4.0001796641104956e-07
 21 0.00049825215520057052
 22 -0.0046256295887807108
 23 -0.0011171270436380401
 24 0.0039281517192728682
 25 3.1592895981808486e-05
 26 -2.5242183009062304e-05
 27 0.00011735319485889958
 28 0.0003383079322033921
 29 -0.00027535535100208994
 30 -4.6643797406489835e-06
 31 6.5762195493182865e-08
 32 -4.2014568520567369e-06
 33 -3.3529900876558272e-06
 34 -3.9781209370797627e-06
 35 -6.1500043030981479e-06
 36 0.99409104561793948
 37 0.026689789651951346
 38 -0.0028328930774420696
 39 0.0010578250190345917
 40 3.2489512447484966e-05
 41 -7.3443083278373206e-05
 42 -4.5750841826014063e-05
 43 8.1712620977060415e-05
 44 -5.2865553152429273e-05
 45 -1.058052803375069e-06
 46 -1.6065603043149274e-05
 47 -5.3034908326383273e-06
 48 1.6852025576748111e-06
 49 -1.1748794213396231e-07
 50 -6.8678667494129382e-07
 51 -1.0600829010529861e-07
 52 7.0766003323679758e-07
 53 4.4190900617057868e-07
 54 -4.1165417245369457e-07
 55 8.2883790707122783e-07
 56 2.9052925793176393e-07
 57 1.477564955754216e-07
 58 -1.5722137458899429e-08
 59 -1.2156266094112168e-08
 60 8.9376417316308198e-08
 61 -7.3401883152844757e-06
 62 1.0438860401819762e-06
 63 -0.0059347638942008479
 64 -0.00015644420003213077
 65 6.3467081810085826e-06
 66 7.1733149261267014e-07
 67 -4.8301591437042296e-07
 68 1.1287402253589001e-08
Sym= A
Ene= -20.252626134761378
Spin= Alpha
Occup= 2
 1 0.00037381564804447182
 2 -0.00021209260562280634
 3 0.00032987627275955431
 4 8.8501970064222904e-05
 5 -4.8595799885909697e-06
 6 -0.0005416731830618117
 7 0.0073285513497312743
 8 -0.0045211462534146818
 9 -0.0032867038965939815
 10 2.004043816400175e-05
 11 -1.0791942545505633e-05
 12 6.8894607204118483e-05
 13 -1.2496582751689647e-05
 14 -9.2689443052091508e-05
 15 -7.8860900918507433e-06
 16 -0.99397375801625065
 17 -0.026240749804185559
 18 -0.0035030724984223827
 19 -0.0025321914241250715
 20 1.9562138132895842e-05
 21 2.7238657338269062e-05
 22 -0.00025984784705273926
 23 0.00023935188547213952
 24 0.00035850687453601628
 25 -5.229096144037366e-07
 26 -6.4263788649432385e-06
 27 -2.5546292319749558e-05
 28 -6.8768002966984598e-05
 29 4.0057036388516792e-05
 30 1.8129662076655682e-06
 31 1.182711401851225e-05
 32 -9.1698072605042071e-05
 33 8.808336049498898e-06
 34 5.0487745278199932e-05
 35 7.0887521336615751e-05
 36 4.7243228390400974e-05
 37 3.6228213221826608e-05
 38 2.6919953746380298e-05
 39 8.9176638436427695e-05
 40 2.521583279479255e-07
 41 -4.8738345623793684e-05
 42 2.4317333358801763e-05
 43 -1.3328448148696489e-05
 44 -1.7651468276098925e-06
 45 -1.4403334824449868e-07
 46 0.02263936458932872
 47 0.00061565440313965294
 48 -6.033339031091909e-05
 49 3.0816560540224613e-06
 50 4.04130452331473e-05
 51 -4.0162028872665814e-07
 52 5.2293324307155778e-06
 53 1.7943707668007826e-07
 54 -6.2742949143249635e-06
 55 -2.4511807529265092e-06
 56 3.2611208781220072e-05
 57 1.7357293892452736e-06
 58 3.5438940965246309e-07
 59 -5.0763797322249906e-07
 60 3.3482212400968493e-07
 61 7.3764832801699164e-06
 62 5.0719010167002074e-06
 63 0.00015776956302727811
 64 1.8806384682197462e-07
 65 -0.00017851445068635917
 66 3.5431439541835918e-06
 67 1.2435321382201544e-07
 68 -1.9869800843571277e-08
Sym= A
Ene= -20.252462286276714
Spin= Alpha
Occup= 2
 1 -0.00025526318862696511
 2 5.0669295170845813e-05
 3 -1.1971139121018468e-05
 4 3.1835414627923164e-05
 5 -8.56287374406111e-05
 6 -4.0483761704254153e-06
 7 -7.6490277061354132e-05
 8 9.2235521167745923e-05
 9 9.9834942356784653e-05
 10 -7.0257193547256593e-05
 11 -1.8200497985076253e-05
 12 0.00032546145965923513
 13 -2.5965589783155134e-05
 14 -5.5482702832367753e-05
 15 -0.00025191043529471276
 16 0.022646466417074254
 17 0.00057524758527321279
 18 7.0797626607274795e-05
 19 4.7395759261269514e-05
 20 7.4783196593491193e-06
 21 -4.8481992114945277e-06
 22 3.9625371955484805e-05
 23 9.5135476250645464e-06
 24 2.8975397851054713e-06
 25 -1.4624411914639091e-05
 26 7.9011583032995505e-06
 27 -6.0503235128218057e-05
 28 5.1644480283949759e-05
 29 4.7468508008428889e-06
 30 5.5408524532721791e-05
 31 0.0005373785160230132
 32 -0.004308364843406319
 33 0.00042085461453810619
 34 0.0020043924660336221
 35 0.0028174823604905225
 36 1.6176377914627234e-05
 37 -4.9301233318046166e-06
 38 -1.0055368077512396e-06
 39 -4.7804958804823112e-06
 40 1.1799816611117973e-06
 41 -2.0871599532170651e-05
 42 -2.0978816961635116e-06
 43 -4.3129239104232331e-07
 44 3.770775742363737e-06
 45 -1.2167220530686588e-05
 46 0.99389844101435898
 47 0.026090601521915974
 48 -0.002205096203213644
 49 0.00031608928762896088
 50 0.0017759914966339885
 51 -1.092006327914753e-05
 52 0.00025277771084422266
 53 5.1440184417141099e-05
 54 -0.00022023552644783589
 55 -0.00011944916359431929
 56 0.0010904695595911288
 57 5.0716044835037721e-05
 58 1.7304406325234847e-05
 59 -1.7175050839742054e-05
 60 9.1408075499899155e-06
 61 -5.0355131614224918e-05
 62 0.00025655539067924275
 63 -3.300595580091022e-06
 64 3.3221927504562682e-07
 65 -0.0060582057296326153
 66 0.00012578448211629512
 67 -5.3872447608203922e-05
 68 1.6811391134979696e-07
Sym= A
Ene= -20.245756983101831
Spin= Alpha
Occup= 2
 1 2.6948195678805624e-05
 2 1.6594979823066416e-06
 3 1.40065362059168e-05
 4 -1.5706449849699471e-05
 5 1.0955543877928255e-05
 6 3.5764149922557636e-07
 7 -4.913748910509181e-06
 8 -1.8261405828781489e-06
 9 -4.429505534550549e-06
 10 -1.4713158594109599e-06
 11 1.1963033149769639e-05
 12 -5.8977108190836486e-05
 13 6.758509752950552e-05
 14 -7.710838942309034e-05
 15 1.5436868593916159e-05
 16 7.871762516152663e-06
 17 -5.4542581088163353e-07
 18 -5.2596725910982931e-07
 19 1.2840430404224053e-07
 20 1.5111071712588936e-07
 21 -1.0062619613037879e-07
 22 2.2707331479795718e-06
 23 -4.0619293120860251e-07
 24 1.8087944077321491e-06
 25 6.9490981783725675e-07
 26 1.2109300973777749e-06
 27 -1.9530871070114284e-05
 28 1.0177970660421283e-05
 29 -9.9359177928659906e-06
 30 -5.8178301064444951e-06
 31 -1.8810840608950684e-05
 32 0.00032416894378875776
 33 -1.4093826957151806e-05
 34 0.00019648142945879327
 35 -0.00010846094677659755
 36 -3.3309707347787577e-07
 37 1.9926757861333556e-07
 38 -9.8755486574583426e-08
 39 6.657459680281877e-08
 40 -5.302041484415293e-08
 41 1.3625241733452502e-07
 42 -5.0122275630095454e-07
 43 6.6035156213843389e-07
 44 1.2114425731845745e-06
 45 2.1176185626076496e-07
 46 -0.001102514727335534
 47 -1.0518037427333961e-05
 48 -2.0377941059999266e-05
 49 1.0461319954543566e-05
 50 -5.9562044452555335e-07
 51 0.00053703383665973034
 52 -0.0043455464787963138
 53 -0.00075033803447487404
 54 -0.0020468853459486708
 55 0.002654688247002171
 56 0.99415949539036197
 57 0.026070792500469897
 58 -0.0022187200065575258
 59 0.00063636731535174785
 60 0.0016558922452958313
 61 -1.2777355356983697e-05
 62 -0.00010276464482514985
 63 -6.0523794697607243e-08
 64 2.1617218535835078e-08
 65 -4.0405989071290449e-06
 66 0.00035840730552348784
 67 0.00035938002771177674
 68 -0.0060341069246687695
Sym= A
Ene= -11.18350103868147
Spin= Alpha
Occup= 2
 1 -0.00035457264442108685
 2 0.0047858577156827328
 3 -0.0003447491296755742
 4 -0.0018556743168814602
 5 -2.2233351953860779e-06
 6 -0.99261712566224458
 7 -0.032271169303580635
 8 -0.00062570519201244137
 9 9.9533234540188226e-05
 10 2.4039087112182273e-05
 11 0.0029787548648048832
 12 0.00081457770699557052
 13 -0.00035560373229630987
 14 -0.00066617605932950408
 15 -1.2755816739915644e-05
 16 -0.00011320657754290003
 17 0.0054367275655354541
 18 0.00084303036353373939
 19 0.00065052986240299315
 20 -6.0830822807879121e-06
 21 0.00020940595558171723
 22 0.0063016351723110958
 23 -0.0034563810652998572
 24 0.00098528700502509281
 25 3.8321641824621677e-05
 26 0.00061779806401538601
 27 -0.00022201213007382037
 28 -0.00011595130517830406
 29 -1.321029402263918e-05
 30 3.2773097910070181e-06
 31 -8.1363705454391179e-06
 32 -6.2351748249572965e-06
 33 1.5090657064694042e-05
 34 2.866786402747892e-05
 35 3.5319705211906902e-05
 36 4.2891311290467775e-05
 37 -0.00041404553896356804
 38 0.00017669024875407308
 39 -1.8025846766202638e-05
 40 -1.8015322412955298e-06
 41 -1.0219887171919809e-05
 42 8.354449380336762e-05
 43 -4.733638967938103e-05
 44 -5.9039958549746835e-07
 45 1.4626461885365247e-07
 46 2.0837189945606746e-05
 47 -0.00016216404320168893
 48 8.57392830216166e-05
 49 3.6892526337086503e-05
 50 2.6588167607871142e-05
 51 -1.7808987831743721e-05
 52 -1.3416698023986304e-05
 53 3.6698878433539389e-06
 54 8.5551691691079096e-06
 55 3.6692500158508855e-06
 56 -3.9027965543581358e-08
 57 6.002915667088337e-07
 58 -5.391135573784827e-07
 59 -4.661954826296142e-07
 60 2.2089546300072763e-07
 61 6.2213304307803113e-05
 62 4.8626717852216436e-06
 63 0.00038120631742514849
 64 3.6352563070101741e-05
 65 0.0004151204337302242
 66 5.4806285474906481e-06
 67 1.8506694281412474e-06
 68 -4.6751183450433921e-07
Sym= A
Ene= -11.143114559581651
Spin= Alpha
Occup= 2
 1 -0.00044907822101193304
 2 0.0045573079382873055
 3 0.0019561053871298903
 4 0.00096945464738313128
 5 -4.654646749678755e-06
 6 -0.0032685493135061585
 7 0.00055482025843074179
 8 0.00057717369251969464
 9 0.00060843249518981526
 10 -5.8272635624270069e-06
 11 -0.99202136322801926
 12 -0.036137930532120083
 13 -0.00047127076353823891
 14 0.00033320281334149084
 15 -1.4269763550768533e-05
 16 -1.8251587084004185e-05
 17 0.00023764024459685916
 18 9.1436988574729317e-05
 19 4.0788484874028016e-05
 20 8.010710056231829e-09
 21 0.00092113323488368648
 22 -0.00022053848665809506
 23 -6.2014716541216111e-05
 24 9.6469530069760723e-05
 25 -7.0229394030845924e-06
 26 0.003935950209263934
 27 0.0061500879239997364
 28 -0.0021741596764793744
 29 0.0030387466239647221
 30 4.9695017027353476e-05
 31 0.0063747292598857457
 32 0.0059711426346109459
 33 -0.00066777827329035644
 34 -0.0020516228796448391
 35 0.0028549493615587992
 36 -1.1260586463330939e-05
 37 8.856649606794019e-05
 38 6.8026660479176182e-06
 39 4.7839214317436235e-05
 40 1.0293328720767381e-06
 41 1.4360236676233019e-05
 42 -0.00017161819124082885
 43 5.8544116913207631e-05
 44 -0.00012209892182474605
 45 -6.6793625247037192e-06
 46 1.049066325556347e-05
 47 -0.00029960045193206958
 48 1.507212400027845e-05
 49 -8.5343881180727221e-05
 50 -2.7540944503509635e-05
 51 0.0010390994905982191
 52 -7.4889650714933184e-05
 53 -9.2609724433026161e-05
 54 -9.2085921596427641e-05
 55 0.00020005159616578831
 56 -1.5443692357879762e-05
 57 0.00011099249413815994
 58 6.8346696941203045e-06
 59 -4.9488049321630423e-05
 60 3.6600475362155369e-05
 61 0.0069723921308152276
 62 -6.4390862942903873e-05
 63 1.8624471918375976e-05
 64 3.666207977397716e-05
 65 0.00023687692456905696
 66 7.619288584620465e-05
 67 3.4436712717868766e-05
 68 1.0193888385536497e-05
Sym= A
Ene= -11.121671144303598
Spin= Alpha
Occup= 2
 1 -8.4609846307160693e-06
 2 -0.00013041025303236651
 3 -6.9845629108728456e-05
 4 -4.5506697801695611e-06
 5 -5.6600107205539985e-05
 6 -6.0298087706737568e-06
 7 5.7228683092978329e-06
 8 5.3583178159282633e-06
 9 8.8848050097327207e-06
 10 3.2371635823025963e-05
 11 -0.0073321194005840015
 12 0.0055423991645027655
 13 0.00052111796654982171
 14 0.0019850016004778481
 15 -0.003044987038118771
 16 -2.894975955622988e-07
 17 2.9783110563992229e-06
 18 1.8778451333902003e-06
 19 5.6483841373231036e-07
 20 -2.1745428659195043e-06
 21 2.7030390344836251e-05
 22 -8.395913917732872e-05
 23 -2.8610441658298569e-05
 24 -4.1224358959644422e-05
 25 5.3635235650766055e-05
 26 0.010199939722408988
 27 0.00046987833822126758
 28 7.0513110864965992e-05
 29 6.2524466278571743e-05
 30 -0.00019395475970585615
 31 -0.99201130123767989
 32 -0.035791997654842797
 33 -2.1193938973783355e-06
 34 -0.00026851590820792075
 35 -0.00053413264399230533
 36 -2.5165436241543059e-07
 37 2.4829466539465781e-06
 38 3.28386646716557e-07
 39 1.4075436791913297e-06
 40 -3.8209667254027191e-06
 41 1.7374518531048516e-05
 42 -0.00014293539900956092
 43 6.433394895568852e-05
 44 -2.4459313206924918e-05
 45 8.9079171727134837e-06
 46 -0.00044503188709184207
 47 0.0045040497449712613
 48 0.00044493222723822508
 49 0.0012818089760659283
 50 0.0017113416742566556
 51 0.0068289783464570456
 52 0.0060492754759527943
 53 0.0023878823721548426
 54 -0.0027389375999694182
 55 3.0016167068974871e-05
 56 4.8238400469037199e-06
 57 -0.00025342352900355799
 58 7.1585411418911837e-05
 59 1.6707545889907416e-06
 60 -0.00010429866377798924
 61 1.8117915252593986e-05
 62 0.0069793541561931211
 63 -7.6997743275752668e-07
 64 -1.3349116829388784e-05
 65 0.00082827427892646563
 66 -5.1047474130479914e-05
 67 -7.6391702369218648e-05
 68 8.4986118196316886e-05
Sym= A
Ene= -11.115740385918263
Spin= Alpha
Occup= 2
 1 -1.7496244208199761e-05
 2 0.00030959541724150802
 3 8.5207897618556211e-05
 4 -2.9277827073743989e-05
 5 9.5123792841005864e-07
 6 0.00074467009745356975
 7 2.1910255030294611e-05
 8 -0.00019128089301287746
 9 -0.00026504384040294555
 10 -2.2114227756991129e-06
 11 0.0049837206118159526
 12 -0.0056112548551740457
 13 -0.0020581581416808659
 14 0.0028905038713215175
 15 5.0994087246413172e-05
 16 1.5069755394963094e-05
 17 -0.0001563701909552441
 18 -6.2452015333801236e-05
 19 -2.0715916845612595e-05
 20 7.3311453559725534e-07
 21 0.0099256822828665894
 22 -0.0073770145221697322
 23 -0.0025913646375107097
 24 -0.0028178250869820287
 25 1.0756196672278727e-05
 26 0.99227315595223409
 27 0.034258320095903558
 28 -0.0017184409059434174
 29 -0.00099360307996480303
 30 1.2703929016229861e-06
 31 0.010300274846647504
 32 0.00034102418189251211
 33 -0.00017766055343514976
 34 0.00032330182818429091
 35 5.704805856984903e-05
 36 -1.8870518827183297e-05
 37 0.00029128600046704305
 38 -1.774751067173605e-05
 39 0.00012083149674207549
 40 7.4303110991422172e-07
 41 0.00032809744885729103
 42 -0.0044449563130034009
 43 0.0018028399331858902
 44 -0.0002633797847710756
 45 -1.7879953258995011e-05
 46 1.6844714016512816e-05
 47 -2.6068553826998769e-05
 48 -7.3998836935648422e-05
 49 9.580917951524634e-05
 50 -6.4956137044088445e-05
 51 -0.00076813584107435478
 52 -0.00023672199687346969
 53 -7.5277389916946283e-05
 54 0.00010407140923517771
 55 -4.1259720133318516e-05
 56 2.8208743379555014e-07
 57 2.3598219267260707e-06
 58 2.0139860600378034e-06
 59 7.3266920920436046e-08
 60 3.5635069268747646e-07
 61 -0.00018226580315115369
 62 -0.00019318384681399608
 63 -4.6373051943099722e-05
 64 -0.0010685874152378677
 65 -0.0001147239400597598
 66 1.1636043478055772e-05
 67 7.3664277146323447e-06
 68 -1.3186756236863812e-06
Sym= A
Ene= -11.101636423422578
Spin= Alpha
Occup= 2
 1 -8.7064788564291534e-06
 2 8.5812353324127982e-05
 3 1.1000223668157722e-05
 4 -8.9108850988344965e-06
 5 -1.1374288869499261e-05
 6 -1.6854544552039052e-05
 7 -7.0014576106008572e-06
 8 -5.3260940098384842e-06
 9 -5.0025304492015352e-06
 10 -7.8512512149137969e-06
 11 0.0011895224140631338
 12 1.8421688707193941e-05
 13 0.0001602399817781635
 14 -0.00014854676449801985
 15 -2.9917534519615383e-05
 16 2.9635586860281369e-07
 17 -2.297544562286332e-06
 18 -1.2062915141600216e-06
 19 -9.4104826016459895e-07
 20 1.057013496809058e-06
 21 2.4036065985114791e-05
 22 -3.1365101694556634e-06
 23 -5.981782401502482e-06
 24 1.7854099702428912e-06
 25 -5.4404926055216969e-06
 26 0.00072448491033202164
 27 -0.0001095334757188109
 28 1.4295348147491845e-05
 29 -8.0011613095901796e-05
 30 3.3726831360281814e-05
 31 0.0078485448988537265
 32 -0.0054946886303690878
 33 0.0023660456986227957
 34 -0.0027299765549539459
 35 0.00025211708297292329
 36 -1.4502210762433118e-07
 37 1.2194085925085717e-06
 38 -3.8401354355308091e-07
 39 6.5980408511540772e-07
 40 6.064788528228459e-07
 41 -6.9418903679595908e-07
 42 8.7898558031529938e-06
 43 -5.722856852754003e-06
 44 -4.9483607801430185e-07
 45 2.7758302945221549e-07
 46 3.4571732539317133e-06
 47 0.00018368587529552427
 48 2.1070258543809395e-05
 49 -1.9383663915434335e-05
 50 8.4551004037869415e-05
 51 0.99209713799172528
 52 0.03604054800327651
 53 -0.00019971592023388177
 54 -0.00031973719992394421
 55 0.00049859911164785997
 56 0.00044640629173454266
 57 -0.0044789668234142196
 58 0.00030172144644861031
 59 0.0014182863785106373
 60 -0.001620655500561001
 61 5.6947576226760652e-05
 62 -6.0169618435882474e-05
 63 -3.0324297484206949e-07
 64 -2.628313236129054e-06
 65 -9.5707218728357255e-05
 66 -0.0069895284925470952
 67 -0.0069962606110969411
 68 -0.00078706291524531166
Sym= A
Ene= -11.080770856894055
Spin= Alpha
Occup= 2
 1 1.6107076015997764e-05
 2 -0.0003369615709505943
 3 -4.2127420473325738e-05
 4 7.1504770757314755e-05
 5 2.0574556489141182e-06
 6 -0.0011703127067092377
 7 0.0067102767445794062
 8 0.0034844403772962135
 9 -0.0013646554781936854
 10 -3.9203366438340199e-05
 11 -0.0009960889971128593
 12 -7.1107711647204648e-05
 13 -0.0002227634175587744
 14 -0.00018489798635470608
 15 -1.1335303157919245e-05
 16 2.6773120080121528e-05
 17 -0.00033647966099866183
 18 -0.00017191575762250458
 19 -6.2929458840149666e-06
 20 1.3294657213596978e-06
 21 -0.9921811083479487
 22 -0.03539303009023885
 23 -0.00011821798828453613
 24 -0.0021740482173265817
 25 -9.5714721709302237e-06
 26 0.0092927325543240742
 27 0.0081816268983557136
 28 -0.0022581839533385301
 29 -0.0032602945652627224
 30 4.7093195181683375e-06
 31 9.0238155783724325e-05
 32 1.2694453322862915e-05
 33 6.9713347300508991e-06
 34 3.1967927484543093e-05
 35 3.7616675248238265e-05
 36 -0.00034858543325628349
 37 0.0044488702171060143
 38 -0.00021855040406777108
 39 0.0018734415243658875
 40 1.2192741100737589e-05
 41 4.7326720772912154e-05
 42 -0.0005293496732827925
 43 0.00010383420700739616
 44 0.00012523414253226561
 45 -4.0918271467431193e-07
 46 4.5207522376702024e-06
 47 -3.3740226516831753e-05
 48 1.9990212787999789e-05
 49 8.8227094521258626e-06
 50 5.9293709943111761e-06
 51 1.7934690691551528e-05
 52 -5.2439267282317417e-06
 53 -5.3799820972483779e-06
 54 2.3558394699149145e-06
 55 -7.0536307115271965e-07
 56 -2.8432895140314413e-08
 57 3.5862429797247491e-07
 58 -5.0585469379711007e-08
 59 -2.5358050121325991e-07
 60 7.0313148699263639e-08
 61 5.2366288189623078e-05
 62 7.0735445940518392e-06
 63 0.0010372739861660568
 64 0.0003941143345867937
 65 0.00010107734533337104
 66 -6.2205376537780846e-06
 67 1.8279519222604533e-06
 68 -1.5964026530302516e-07
Sym= A
Ene= -1.4155024223366601
Spin= Alpha
Occup= 2
 1 0.18222578991732929
 2 -0.63986991141508476
 3 -0.059224223670545285
 4 0.066610505480923801
 5 0.0037288152531846958
 6 0.11572125674722794
 7 -0.2643488826146087
 8 0.017633273697957974
 9 -0.049296205625924294
 10 0.00052065337916567069
 11 0.064713689071198871
 12 -0.15733785176770024
 13 0.050644000463378913
 14 0.031548537467935962
 15 0.0032554900235370076
 16 0.080762103485108497
 17 -0.27591880651030287
 18 -0.046760035806104203
 19 -0.037237441871378597
 20 0.00038187996749996844
 21 0.04104332108208697
 22 -0.090843219290952987
 23 0.016754219751400762
 24 -0.013712978746911547
 25 -0.00013482513605717777
 26 0.033885313803140395
 27 -0.074588898794069408
 28 0.013936482035231033
 29 -0.0007645331421873118
 30 1.6785761857796531e-05
 31 0.017026332781276507
 32 -0.039704403632964888
 33 0.0063681713163668179
 34 0.010119792654199
 35 -0.0056575973626763216
 36 0.02796352949132451
 37 -0.098324818822544985
 38 0.011425341015131728
 39 -0.0095780657894864434
 40 -0.00018526664749055503
 41 0.024267361859608778
 42 -0.085613686649728765
 43 0.010857984614330336
 44 0.0065226099116949864
 45 -0.00010708330667725554
 46 0.016599679564831469
 47 -0.057014689043732289
 48 0.0050483779276261015
 49 -0.00091242414243645023
 50 -0.0079628325523628789
 51 0.0050058786052435342
 52 -0.011397864645405894
 53 -0.0013509301175552834
 54 0.003520013722941898
 55 -0.00037668014674782494
 56 0.0024097168832883133
 57 -0.008254960966373702
 58 0.00061523798427274461
 59 0.00045772632504782014
 60 -0.00095213256485495584
 61 -0.016514277467125721
 62 -0.0041703081018473684
 63 -0.015217138897597217
 64 -0.012802108824056614
 65 -0.010616390181232786
 66 -0.004023251792391728
 67 -0.0014716425366659812
 68 -0.0010721415809134757
Sym= A
Ene= -1.3499181317625797
Spin= Alpha
Occup= 2
 1 -0.041559084196989643
 2 0.14939471225040787
 3 0.0088801815835451402
 4 -0.014412628885298564
 5 -0.00067081226446028485
 6 -0.019891766753923634
 7 0.046615578202196403
 8 -0.019377245892303628
 9 0.015860347922333276
 10 0.00010603991063192874
 11 0.00067208649701855166
 12 -0.0029592516372714522
 13 -0.024865410592268704
 14 0.0066986503959493536
 15 0.00058307037690272364
 16 -0.020765429394308615
 17 0.071799702039851698
 18 0.0096357466091461889
 19 0.009842019326080826
 20 -7.2840129076253701e-05
 21 0.04487704285996983
 22 -0.10611486968862399
 23 -0.028026669882750189
 24 0.016446688961208052
 25 0.00028226980958545274
 26 0.083917817936240924
 27 -0.19849254128735139
 28 -0.07842490069769939
 29 0.017781506458224246
 30 0.00045990170663630934
 31 0.0021013374213659456
 32 -0.0049931848953033908
 33 -0.0017634003793701057
 34 0.0013641743351135473
 35 0.00040535314476633196
 36 0.083609904648713762
 37 -0.29653093805329217
 38 0.027454372888810672
 39 -0.018001563440574495
 40 -0.00044712553778643419
 41 0.20060187360362344
 42 -0.71342435342623367
 43 0.05814197065587684
 44 0.060208829032009213
 45 -0.0010981391058033519
 46 0.0033853714302735875
 47 -0.01208405897566254
 48 9.4434594174528871e-05
 49 0.00011715522875553608
 50 -0.0013510104138158908
 51 -9.1099160794749345e-05
 52 0.00014787706452305035
 53 -0.00027463195188355462
 54 -0.00015471700875450967
 55 0.00023387205411670107
 56 0.00017028560150460974