[Molden Format]
generated by GANSU
[Atoms] (Angs)
O 1 8 0 0 0.127
H 2 1 0 0.758 -0.509
H 3 1 0 -0.758 -0.509
[GTO]
1 0
 s 3 1.00
    130.709 0.154329
    23.8089 0.535328
    6.44361 0.444635
 s 3 1.00
    5.03315 -0.0999672
    1.1696 0.399513
    0.380389 0.700115
 p 3 1.00
    5.03315 0.155916
    1.1696 0.607684
    0.380389 0.391957

2 0
 s 3 1.00
    3.42525 0.154329
    0.623914 0.535328
    0.168855 0.444635

3 0
 s 3 1.00
    3.42525 0.154329
    0.623914 0.535328
    0.168855 0.444635

[MO]
Sym= A
Ene= -20.2516
Spin= Alpha
Occup= 2
 1 -0.99421661401905981
 2 -0.025845545662063339
 3 3.8890749678161017e-17
 4 -3.4539910291395852e-16
 5 0.0031051716009084141
 6 0.0055829705757176563
 7 0.0055829705757164325
Sym= A
Ene= -1.2575444080927078
Spin= Alpha
Occup= 2
 1 0.23376668135290465
 2 -0.84446793813651289
 3 -1.3073984228249951e-17
 4 -4.367589105120694e-16
 5 0.091594771434319655
 6 -0.15558610367246456
 7 -0.15558610367246339
Sym= A
Ene= -0.59378349275097297
Spin= Alpha
Occup= 2
 1 -6.9923355547928435e-17
 2 -6.38959691628853e-16
 3 -6.1321993043911651e-16
 4 -0.45689281573014812
 5 -5.2357993231936291e-16
 6 -0.44923684610461739
 7 0.44923684610462011
Sym= A
Ene= -0.45977781852769722
Spin= Alpha
Occup= 2
 1 -0.10404559813048833
 2 0.53820698588828741
 3 1.4726983597291304e-15
 4 -1.5418716269264599e-15
 5 0.5635621783186896
 6 -0.29515247228248659
 7 -0.29515247228248709
Sym= A
Ene= -0.39262857776360188
Spin= Alpha
Occup= 2
 1 1.7734372362945989e-16
 2 -8.7032292668692893e-16
 3 0.74566095424985324
 4 -5.0783818595404139e-16
 5 -1.1103133388793198e-15
 6 -1.1162576889044871e-17
 7 8.7127410499997812e-16
Sym= A
Ene= 0.58177098222374257
Spin= Alpha
Occup= 0
 1 0.12580022494475029
 2 -0.81998391597682851
 3 -5.8114527832946321e-17
 4 4.7056950401088999e-15
 5 0.56943582420932826
 6 0.76908877559110977
 7 0.76908877559111899
Sym= A
Ene= 0.69254172188294427
Spin= Alpha
Occup= 0
 1 1.3307557881674415e-15
 2 -5.683984776547426e-15
 3 -1.3712405098175025e-16
 4 -0.71561073556531485
 5 3.0502813925941613e-15
 6 0.81461908207128819
 7 -0.81461908207127842
